<?xml version="1.0"?>
<VTKFile type="UnstructuredGrid"  version="0.1"  >
<UnstructuredGrid>
<Piece  NumberOfPoints="411" NumberOfCells="757">
<Points>
<DataArray  type="Float64"  NumberOfComponents="3"  format="ascii">1 0 0  0.9950307753424469 0.09956784682521302 0  0.9801724877581199 0.1981461436466988 0  0.9555728055899844 0.2947551750468275 0  0.9214762115412887 0.3884347970554571 0  0.878221572847902 0.4782539795804704 0  0.8262387735293077 0.5633200592174801 0  0.7660444420435373 0.6427876109681997 0  0.6982368166884868 0.7158668506228854 0  0.6234898000711532 0.7818314838935776 0  0.5425462616716372 0.8400259245678857 0  0.4562106547492349 0.8898718101464247 0  0.3653410213606504 0.9308737498238721 0  0.2708404647247718 0.9626242479117538 0  0.1736481738855714 0.9848077536789637 0  0.0747300894292086 0.9972037974927204 0  -0.02493069619005662 0.9996891818897907 0  -0.1243437093935069 0.9922392060054184 0  -0.2225209388936208 0.9749279110549156 0  -0.3184866553565292 0.9479273444519951 0  -0.4112871082861543 0.9115058499854036 0  -0.5000000051436531 0.8660254008147491 0  -0.5837436773981763 0.8119380020036344 0  -0.6616858425795832 0.7497811985704543 0  -0.7330518765357205 0.6801727326991717 0  -0.7971325115562669 0.6038044046046684 0  -0.8532908855881599 0.5214351969057841 0  -0.9009688713163121 0.4338837320285363 0  -0.9396926235768162 0.3420201356577126 0  -0.9690772883116017 0.2467573895117082 0  -0.988830827546393 0.149042257410158 0  -0.9987569216736767 0.04984587654883038 0  -0.9987569207643853 -0.04984589476821013 0  -0.9888308249189958 -0.1490422748417993 0  -0.9690772841339318 -0.2467574059184503 0  -0.9396926179877757 -0.342020151013475 0  -0.9009688645070715 -0.4338837461680701 0  -0.8532908777076588 -0.5214352098016525 0  -0.7971325028545885 -0.6038044160924789 0  -0.733051867136826 -0.6801727428287707 0  -0.6616858327031787 -0.7497812072864329 0  -0.5837436670143792 -0.8119380094690761 0  -0.4999999948144361 -0.8660254067783253 0  -0.4112870980061251 -0.9115058546239294 0  -0.3184866448956037 -0.9479273479666792 0  -0.2225209288760807 -0.9749279133413538 0  -0.1243436996694762 -0.9922392072239975 0  -0.02493068706666702 -0.9996891821173138 0  0.07473009780364996 -0.9972037968651427 0  0.173648181732695 -0.984807752295304 0  0.2708404716990337 -0.9626242459495007 0  0.3653410275156022 -0.9308737474082316 0  0.4562106603153321 -0.8898718072928531 0  0.5425462662721159 -0.8400259215965816 0  0.6234898039414718 -0.7818314808071015 0  0.6982368197427202 -0.7158668476438702 0  0.766044444337473 -0.6427876082343936 0  0.8262387753254992 -0.5633200565829511 0  0.8782215740169719 -0.4782539774336984 0  0.9214762123114304 -0.3884347952284652 0  0.9555728060786477 -0.2947551734626198 0  0.9801724879568812 -0.1981461426634838 0  0.9950307754096857 -0.09956784615326231 0  0.4589642888772116 -0.7886666505082998 0  -0.4146821997961077 0.8062642543788969 0  -0.8028358043309298 -0.4537385104606888 0  0.8233258125387509 0.3935956744220127 0  -0.2471206113548315 -0.8783188826887464 0  -0.8715793672955142 0.2802819854274809 0  0.2905940051230275 0.8649091161708946 0  0.86399466449859 -0.3164122903590356 0  0.112791402386944 -0.904368809873449 0  -0.5665381108694804 -0.7154896345070572 0  -0.9173049500615473 -0.08133814122137192 0  0.9121811560431864 0.03626325804911925 0  -0.7167620814504039 0.5847320807467508 0  -0.06706516930677842 0.9174906564893126 0  0.6037362602342264 0.6841163520310896 0  0.6726959518980961 -0.6381199002810816 0  0.7787075156354877 -0.4792865777385625 0  0.8990849184913738 -0.1269663189177567 0  0.2893074720196664 -0.8597373315048338 0  -0.05685175768672932 -0.9209403361265706 0  -0.4333988412748478 -0.8176819250843602 0  -0.9034111260704363 0.0887654107471646 0  -0.6989552740101379 -0.5864931210489334 0  -0.8714028532829563 -0.2698026210420308 0  -0.8013080857299983 0.4363691176253084 0  -0.2481601609531771 0.8808356362328713 0  0.8842067712579876 0.2251467096670516 0  0.1134538428128295 0.905340201589466 0  -0.570605438204098 0.712139009878358 0  0.7112688741091725 0.5538117193112041 0  0.452525574227554 0.7897421306025125 0  -0.3414355450199018 -0.8470327978772133 0  -0.2722945687367302 -0.7795589152549504 0  -0.176576105156839 -0.8085455314322503 0  -0.2031209908764935 -0.7119330813064393 0  -0.1061557382562923 -0.7353134556475898 0  -0.1333035542007324 -0.6409639967973384 0  -0.2299184279376776 -0.6164193418897171 0  -0.1601119471595458 -0.54529184011634 0  -0.06357463522939985 -0.5701741575797087 0  -0.09032162636019739 -0.4742273366340999 0  -0.1868562855385441 -0.4493347341753485 0  -0.117046929234102 -0.3781819966449316 0  -0.02050917575693966 -0.4030602908613675 0  -0.0472350584910881 -0.3070176344655209 0  -0.1437733128306913 -0.2821416475614442 0  -0.0739610774831635 -0.2109756011171108 0  0.02257719930149374 -0.235851485704148 0  -0.004148720057926295 -0.139808989836838 0  -0.1006869803289499 -0.1149330282694977 0  -0.03087462595659208 -0.04376643140190471 0  0.0656636315897145 -0.06864240539143765 0  0.03893772765880558 0.02740016212137307 0  -0.05760052979284924 0.05227613665553106 0  0.01221182440690084 0.1234427327203318 0  0.1354759852960226 0.002524188547464334 0  -0.08432643320192985 0.148318706789379 0  -0.01451407888558151 0.2194853032252033 0  -0.1110523365139031 0.2443612772967803 0  -0.1808646908484775 0.173194680766891 0  -0.04123998220241553 0.315527873783825 0  0.05529827543983795 0.2906518996877751 0  -0.2075905941485477 0.2692372513676639 0  -0.2774029484815027 0.1980706548281711 0  0.02857237214627389 0.3866944703054201 0  0.1251106298237271 0.3618184961996656 0  -0.3041288518012371 0.2941132254553123 0  -0.373941206130737 0.2229466289036679 0  -0.3472153028010233 0.1269040582948285 0  -0.4437535604451317 0.1517800323591314 0  -0.4170276570999563 0.05573746176580362 0  0.09838472652330868 0.4578610668402722 0  0.1949229842060436 0.4329850927409744 0  0.2216488875220583 0.3369425220720634 0  0.001846468928787241 0.4827370409465461 0  0.2914612419062723 0.4081091186149362 0  0.3181871452245917 0.3120665479392379 0  0.1622018885918542 -0.09351838185489339 0  0.2320142427445476 -0.02235178586434626 0  0.2587401460177972 -0.118394356383868 0  0.3285525002221444 -0.04722776008099268 0  0.355278403500862 -0.1432703305483377 0  0.425090757710193 -0.07210373417758013 0  0.4518166609414709 -0.1681463046302946 0  0.3820043067617475 -0.2393129009891954 0  -0.5135659147205343 0.08061343582625011 0  -0.4868400114142113 -0.01542913472109753 0  -0.4006671094830494 0.3189891995317588 0  -0.3308547551262987 0.3901557961000013 0  0.5216290151741039 -0.096979708262352 0  0.4949031119391835 -0.0009371377965180921 0  0.3879994996339942 0.383233144478657 0  0.4785425641644531 -0.2641888750481178 0  0.4087302099982131 -0.3353554713601328 0  -0.5402918180845104 0.1766560063925543 0  0.1681970808903585 0.5290276634131116 0  -0.5833782689883096 0.009446839324014659 0  -0.5566523656635333 -0.08659573119040014 0  -0.4601141081252834 -0.11147170523539 0  -0.5299264623348398 -0.1826383016662359 0  0.5914413694583999 -0.0258131118722005 0  0.5647154662373796 0.07022945859759529 0  0.3612735963096737 0.4792757151845156 0  -0.427393012852807 0.415031770190663 0  -0.3575806584661602 0.4861983667766743 0  -0.4333882048501471 -0.2075142756926602 0  -0.5032005590539431 -0.2786808720836153 0  0.3121919526079304 -0.31047949733501 0  0.3389178558476052 -0.4065220676696347 0  0.5052684673828014 -0.360231445414556 0  0.618167272630094 -0.1218556823606219 0  0.4578118540444858 0.4543997410414525 0  0.4845377573653067 0.3583571703312383 0  -0.5997388165030568 -0.2538048980749383 0  -0.5726182745709099 -0.349737651792752 0  -0.476408882694728 -0.3747051396862863 0  0.242379598375754 -0.381646093720459 0  0.2691055017067961 -0.477688663991579 0  0.3656437590571927 -0.5025646379868325 0  0.2958314049388511 -0.5737312342652557 0  0.199293147626674 -0.548855260270697 0  -0.3635758506296833 -0.1363476792956745 0  0.2052883395042254 0.07369078451466132 0  -0.2610424007352268 0.4613223926703736 0  -0.2877683040726436 0.5573649633665057 0  0.4681772088477804 0.09510543263094937 0  -0.6531906232170687 -0.06171975714986294 0  0.6612537237706846 0.04535348453420714 0  0.6345278205785211 0.1413960550056769 0  -0.6799165265390616 0.03432281335059308 0  0.2260190508484043 -0.6448978305283196 0  0.4310859507295732 0.5504423117723948 0  -0.4541189162096942 0.5110743408881729 0  -0.5239312706109315 0.4399077442776883 0  -0.5458156360021287 -0.4457588689026649 0  -0.4496591618223829 -0.4707412880451375 0  0.5543501117845178 0.4295237668922745 0  0.3923696622464402 -0.5986072082673006 0  0.1294807921938694 -0.6200218618266979 0  -0.3799231786899924 -0.3995959535426268 0  -0.3204893995410594 0.03086148769718712 0  0.5750808215247509 -0.2890648491214648 0  0.4621820163455043 -0.5274406120320946 0  -0.3368499472862063 -0.232390250243194 0  0.188927791846685 -0.1895609528188325 0  0.3345476929550765 0.5753182859113447 0  -0.1912300463563641 0.5324889892380295 0  -0.2179559496650557 0.6285315599584633 0  -0.1214176919454829 0.6036555858383672 0  -0.1481435952457844 0.6996981565728593 0  -0.05160533746994912 0.6748221824573221 0  0.581076014925286 0.3334811961817142 0  0.6018067247361701 -0.3851074194357652 0  0.4869869017200988 -0.6228910692174049 0  0.1572340394148161 -0.7187357914562776 0  0.7302509579962368 0.1162932563386977 0  0.7034810132252184 0.2123235711332083 0  -0.3143635832681669 0.653279395590162 0  0.6710557319075262 -0.3140975865440377 0  -0.5194676125583334 -0.541906626672413 0  -0.4229920318077112 -0.5668006585662466 0  -0.6665840080286811 -0.3244548240554672 0  -0.6957825468412788 -0.2288428123419464 0  0.7535309802004999 0.02387228508192352 0  0.6483464994801122 0.4039107900221328 0  0.05983966168358921 -0.6916336864099627 0  0.1027548840652149 -0.5239793035500566 0  -0.2670375931113356 -0.1612236540510189 0  0.51126366033821 0.2623145996200579 0  0.2483747908044156 0.2408999514355696 0  -0.164504143066976
[...]
<PointData  Scalars="f_30"> 
<DataArray  type="Float64"  Name="f_30"  format="ascii">9.4131882615476267e-02  9.4820097027973629e-02  9.5390900122149069e-02  9.5952352499688989e-02  9.6494159361580123e-02  9.7040618225139957e-02  9.7547076236521826e-02  9.7893399071212042e-02  9.8199117200820807e-02  9.8469163735524848e-02  9.8590173297175926e-02  9.8643285724175397e-02  9.8631902601199084e-02  9.8564983122832323e-02  9.8479232865006636e-02  9.8399951670097269e-02  9.8299911711484556e-02  9.8183070549136803e-02  9.8057964303586445e-02  9.7896511112970291e-02  9.7698334102350237e-02  9.7422958381336994e-02  9.7051193985262380e-02  9.6644460119700709e-02  9.6211316597580449e-02  9.5753220749067669e-02  9.5419866251180194e-02  9.5070901941664912e-02  9.4730038548554801e-02  9.4510075882913033e-02  9.4354669996573964e-02  9.4104618273807297e-02  9.3820397139061290e-02  9.3614346103706045e-02  9.3334310959575187e-02  9.3015789849477865e-02  9.2628207929181139e-02  9.2228160834712636e-02  9.1948432990759207e-02  9.1666131018012048e-02  9.1433774084875005e-02  9.1232575282826273e-02  9.1051629786767493e-02  9.0985303466469977e-02  9.0896620850570597e-02  9.0763613796817383e-02  9.0574495845453920e-02  9.0323598220115847e-02  9.0137758836183760e-02  8.9902446952395562e-02  8.9683486092133391e-02  8.9489799869325662e-02  8.9356000076271244e-02  8.9329151225157985e-02  8.9401726215938448e-02  8.9666088656947626e-02  9.0038900428960358e-02  9.0507550613007803e-02  9.1069166370109270e-02  9.1660642766079534e-02  9.2279707748399747e-02  9.2948520520403616e-02  9.3534231202938939e-02  8.8496380343824024e-02  9.6425217783439793e-02  9.1654565923069212e-02  9.5773622688870658e-02  8.9892907583041123e-02  9.3771263428487336e-02  9.7613399385440239e-02  9.1172336924063735e-02  8.9141686124201536e-02  9.0458206675323588e-02  9.2975884737089357e-02  9.3479733553354746e-02  9.5231961206128687e-02  9.7389198819407677e-02  9.7351697386951069e-02  8.9200156657232577e-02  8.9889298652218161e-02  9.2320634002381594e-02  8.8636343403023940e-02  8.9722813659433492e-02  9.0381571300266625e-02  9.3214256264598006e-02  9.0934788045047898e-02  9.2200700080955100e-02  9.4346186968868845e-02  9.7036221199310768e-02  9.4711917533806700e-02  9.7444890346937207e-02  9.5811232264893714e-02  9.6526242592139364e-02  9.7533060418653159e-02  9.0038239982283344e-02  8.7202185772750906e-02  8.7114415345144663e-02  8.2790880308413292e-02  8.2745292318414557e-02  7.7103142989800075e-02  7.7527232998362700e-02  7.0794812458299008e-02  7.0998908990165199e-02  6.4106436660119864e-02  6.4621790806067614e-02  5.7825912776405072e-02  5.8171800339763421e-02  5.2211450579288922e-02  5.2787146706619721e-02  4.7822015224403908e-02  4.8287017599433310e-02  4.4795437229846136e-02  4.5372034726105182e-02  4.3399891151255698e-02  4.3952588164897180e-02  4.3694615105135226e-02  4.4231552915957185e-02  4.5672121842659667e-02  4.5382734330034209e-02  4.7278314066535383e-02  4.9799093018353585e-02  5.2377527977768110e-02  5.0988859895363947e-02  5.5828308159015218e-02  5.4387526778422887e-02  5.6878028377764234e-02  5.6540900482107866e-02  6.1104649905616044e-02  6.0728642972119211e-02  6.2941054126340060e-02  6.3492618861632807e-02  5.8181588730110145e-02  6.5782375992051223e-02  6.1632964446948615e-02  6.7792816220984126e-02  6.8320181860397983e-02  6.2224761222451026e-02  6.8947081478688693e-02  7.0465828020166404e-02  6.5448390152498662e-02  4.6677794398092554e-02  4.9174286691339095e-02  5.1379788954411691e-02  5.4791595275357520e-02  5.7699891122291118e-02  6.1783676278595455e-02  6.5102311736731713e-02  6.2157642103678010e-02  6.9560011316856490e-02  6.6556871105114587e-02  7.0026582813234248e-02  7.0409435226535089e-02  6.9521734673332808e-02  6.7343736310905844e-02  7.3995833388234095e-02  6.9597582596882396e-02  6.7706964764429403e-02  7.3829996018026964e-02  7.5297788685631389e-02  7.4405698097552958e-02  7.2444213564063789e-02  6.5085518161478367e-02  7.1833473718658988e-02  7.4992341571664747e-02  7.3871113735567553e-02  7.8929890980853470e-02  7.7175345960689978e-02  7.8247296432275071e-02  6.5252780493135445e-02  7.2605370887054071e-02  6.0942528598554729e-02  6.7387599585776156e-02  7.4746929996069467e-02  7.7230413206007223e-02  8.2348636774170467e-02  7.8513397147714076e-02  7.8632074078915870e-02  7.9659330965129588e-02  7.4634685527231653e-02  6.1541175126283702e-02  6.8643524848595802e-02  7.4084493187544287e-02  7.5687720536089770e-02  7.1303810003874118e-02  5.8422834139188612e-02  4.9024815640740536e-02  7.2357031139704112e-02  8.0541414930611038e-02  6.6647723142544218e-02  7.9746024286469638e-02  8.0932698371070602e-02  8.0708560080140726e-02  8.1848128916802293e-02  7.8309302879063139e-02  8.6743997365418310e-02  8.4191567808873560e-02  8.3762899485128287e-02  8.1601309318264981e-02  7.7656050875035243e-02  8.6272994433440567e-02  8.0276702106571438e-02  7.5031115633579518e-02  7.0144455814519169e-02  5.4527686646331876e-02  7.6992171198788387e-02  7.9569500226513087e-02  5.9568187153946718e-02  5.0022229278094563e-02  8.4354378288342427e-02  7.5688758402991788e-02  8.3793189945328000e-02  8.0069980501895455e-02  8.7641310509727663e-02  8.5014330810023922e-02  8.3484841729783821e-02  8.1301607165922982e-02  8.4393767995491795e-02  8.1717258798774270e-02  8.6633548727493709e-02  8.7049904728347158e-02  8.7874705557439786e-02  8.3500226424511922e-02  8.4125945555888357e-02  8.1259901774007298e-02  8.4517512060197489e-02  8.4367228699443964e-02  8.6796971341346535e-02  9.0005014616950221e-02  7.9365174450651013e-02  6.7655440921230964e-02  5.3065846639086686e-02  7.5665354048262620e-02  5.7550027090234102e-02  6.7203600825485432e-02  6.1876735321215882e-02  8.6252321373287463e-02  8.9341886595981412e-02  8.9154801884759771e-02  8.4316876574753341e-02  9.0813865462045867e-02  8.9602293005742906e-02  8.9878340002799553e-02  9.1251672426295546e-02  8.9824633272472795e-02  8.3186430331237349e-02  8.8968850247384212e-02  8.8081340135551120e-02  8.4695166899296986e-02  8.4130526276082029e-02  9.0280816803700731e-02  8.7641325035411319e-02  8.4102413225134842e-02  8.5293944767179108e-02  9.0168831441175504e-02  9.3487187370462216e-02  9.2304946258570525e-02  8.8989438862774065e-02  9.3863300231459654e-02  8.7209624715378783e-02  8.6880845467106338e-02  8.4819241800606987e-02  9.1061803335482722e-02  8.9235981741112927e-02  8.7040333034766243e-02  8.5236297111755968e-02  8.3606464307372869e-02  8.3310417802320652e-02  7.1927636062567912e-02  7.7747079348985976e-02  5.9275160538119279e-02  6.6693529276446131e-02  6.5160951835392764e-02  5.5298068065294123e-02  5.3590855115573086e-02  8.5144722783234858e-02  6.0254597513048909e-02  5.6795162819037757e-02  5.4657084777249322e-02  5.0789403116854370e-02  5.5128000101018787e-02  8.1877601768525238e-02  8.6483712695570134e-02  8.6790410871821932e-02  8.7796285973065810e-02  5.1734352131009367e-02  4.8862153618384717e-02  4.6969714160698735e-02  7.9848098183035982e-02  8.0213519816009576e-02  8.6022673512949455e-02  8.8809681573331967e-02  8.9657904149237466e-02  5.4980204808783351e-02  7.0086809213093612e-02  5.2790170510076416e-02  4.8094325378867209e-02  7.3732196808786885e-02  4.6386316745028217e-02  8.2111845866956495e-02  8.8465414748156168e-02  8.4063020966939045e-02  6.7007558893852376e-02  7.7424450847376661e-02  4.9328708044446293e-02  7.8631972707154399e-02  5.5427417128680635e-02  7.1218958715291061e-02  6.4207617101186901e-02  8.4899795095922548e-02  7.2882066137473861e-02  8.5623495822551993e-02  7.8942252491245465e-02  7.6473918836825500e-02  5.9119035176860450e-02  9.0493381233370099e-02  4.6270903510689326e-02  8.9579992041565526e-02  6.0019747055443835e-02  4.5068328103730515e-02  5.9194779216540309e-02  7.7194624608841092e-02  8.2856005378891456e-02  7.7532655529171060e-02  4.9446865106953536e-02  6.3865540828958373e-02  5.0991644495536247e-02  9.1996464560674895e-02  6.3328545709163242e-02  5.3731006504072615e-02  8.1434733656295138e-02  7.1673193929891757e-02  6.7571574290581637e-02  8.5814346401850775e-02  9.1420289497292959e-02  7.5540688388842897e-02  8.8132659431751179e-02  8.2446018067329263e-02  6.0031286398159599e-02  7.4080122525289130e-02  8.8938567484449768e-02  9.4764006569578757e-02  8.1526362915980630e-02  9.2545032367518321e-02  6.2422739805620749e-02  7.2482894575418053e-02  7.8899189538480796e-02  7.4286660265988624e-02  9.3149919124045036e-02  9.4303563325200165e-02  8.9208451163008198e-02  9.3497777409909402e-02  8.5466670586946639e-02  9.1186921328453338e-02  8.8834687537318310e-02  8.8403659378020083e-02  9.1862827116774168e-02  9.4171468276099915e-02  9.4769711016438787e-02  9.1413663703397541e-02  9.4693124137287657e-02  9.0019168908692396e-02  9.4847931146323311e-02  9.7228098588493683e-02  9.5670437612321635e-02  8.7618489238630679e-02  8.7246287303445871e-02  8.9494081131673106e-02  9.3442601604727699e-02  9.1781763110973885e-02  8.9715476782737821e-02  9.4106400143949942e-02  9.4275552775529819e-02  9.6455296063367363e-02  9.5540928072170059e-02  9.1785116329580904e-02  9.7281693749438222e-02  9.6982648313040917e-02  9.5474618478408796e-02  9.7820573838527491e-02  9.2501620681839411e-02  9.7579533898701720e-02  9.0600051785939745e-02  9.7374024481890198e-02  9.7445376865307257e-02  8.7194562768548436e-02  9.3072197287964606e-02  8.9081400026029933e-02  8.8801916222994118e-02  9.3192740007957131e-02  8.7713462295254591e-02  9.3982378413974652e-02  8.9177932545448910e-02  9.4703120311028122e-02  9.0959848978168806e-02  9.2956464200075459e-02  9.5186714759898275e-02  9.3418932787688314e-02  9.1603983341288345e-02  8.9765507013009810e-02  8.9606838867630920e-02  8.8007054902393023e-02  9.5129002399579513e-02  9.1316461643580524e-02  8.7453344693671220e-02  9.0667706598927728e-02  9.5020910970017691e-02  8.9052040969163346e-02  9.3710024526350133e-02  9.0713648152996998e-02  9.3408826182786217e-02  8.9028651801615913e-02  </DataArray> 
</PointData> 
</Piece>
</UnstructuredGrid>
</VTKFile>