<?xml version="1.0"?>
<VTKFile type="UnstructuredGrid"  version="0.1"  >
<UnstructuredGrid>
<Piece  NumberOfPoints="411" NumberOfCells="757">
<Points>
<DataArray  type="Float64"  NumberOfComponents="3"  format="ascii">1 0 0  0.9950307753424469 0.09956784682521302 0  0.9801724877581199 0.1981461436466988 0  0.9555728055899844 0.2947551750468275 0  0.9214762115412887 0.3884347970554571 0  0.878221572847902 0.4782539795804704 0  0.8262387735293077 0.5633200592174801 0  0.7660444420435373 0.6427876109681997 0  0.6982368166884868 0.7158668506228854 0  0.6234898000711532 0.7818314838935776 0  0.5425462616716372 0.8400259245678857 0  0.4562106547492349 0.8898718101464247 0  0.3653410213606504 0.9308737498238721 0  0.2708404647247718 0.9626242479117538 0  0.1736481738855714 0.9848077536789637 0  0.0747300894292086 0.9972037974927204 0  -0.02493069619005662 0.9996891818897907 0  -0.1243437093935069 0.9922392060054184 0  -0.2225209388936208 0.9749279110549156 0  -0.3184866553565292 0.9479273444519951 0  -0.4112871082861543 0.9115058499854036 0  -0.5000000051436531 0.8660254008147491 0  -0.5837436773981763 0.8119380020036344 0  -0.6616858425795832 0.7497811985704543 0  -0.7330518765357205 0.6801727326991717 0  -0.7971325115562669 0.6038044046046684 0  -0.8532908855881599 0.5214351969057841 0  -0.9009688713163121 0.4338837320285363 0  -0.9396926235768162 0.3420201356577126 0  -0.9690772883116017 0.2467573895117082 0  -0.988830827546393 0.149042257410158 0  -0.9987569216736767 0.04984587654883038 0  -0.9987569207643853 -0.04984589476821013 0  -0.9888308249189958 -0.1490422748417993 0  -0.9690772841339318 -0.2467574059184503 0  -0.9396926179877757 -0.342020151013475 0  -0.9009688645070715 -0.4338837461680701 0  -0.8532908777076588 -0.5214352098016525 0  -0.7971325028545885 -0.6038044160924789 0  -0.733051867136826 -0.6801727428287707 0  -0.6616858327031787 -0.7497812072864329 0  -0.5837436670143792 -0.8119380094690761 0  -0.4999999948144361 -0.8660254067783253 0  -0.4112870980061251 -0.9115058546239294 0  -0.3184866448956037 -0.9479273479666792 0  -0.2225209288760807 -0.9749279133413538 0  -0.1243436996694762 -0.9922392072239975 0  -0.02493068706666702 -0.9996891821173138 0  0.07473009780364996 -0.9972037968651427 0  0.173648181732695 -0.984807752295304 0  0.2708404716990337 -0.9626242459495007 0  0.3653410275156022 -0.9308737474082316 0  0.4562106603153321 -0.8898718072928531 0  0.5425462662721159 -0.8400259215965816 0  0.6234898039414718 -0.7818314808071015 0  0.6982368197427202 -0.7158668476438702 0  0.766044444337473 -0.6427876082343936 0  0.8262387753254992 -0.5633200565829511 0  0.8782215740169719 -0.4782539774336984 0  0.9214762123114304 -0.3884347952284652 0  0.9555728060786477 -0.2947551734626198 0  0.9801724879568812 -0.1981461426634838 0  0.9950307754096857 -0.09956784615326231 0  0.4589642888772116 -0.7886666505082998 0  -0.4146821997961077 0.8062642543788969 0  -0.8028358043309298 -0.4537385104606888 0  0.8233258125387509 0.3935956744220127 0  -0.2471206113548315 -0.8783188826887464 0  -0.8715793672955142 0.2802819854274809 0  0.2905940051230275 0.8649091161708946 0  0.86399466449859 -0.3164122903590356 0  0.112791402386944 -0.904368809873449 0  -0.5665381108694804 -0.7154896345070572 0  -0.9173049500615473 -0.08133814122137192 0  0.9121811560431864 0.03626325804911925 0  -0.7167620814504039 0.5847320807467508 0  -0.06706516930677842 0.9174906564893126 0  0.6037362602342264 0.6841163520310896 0  0.6726959518980961 -0.6381199002810816 0  0.7787075156354877 -0.4792865777385625 0  0.8990849184913738 -0.1269663189177567 0  0.2893074720196664 -0.8597373315048338 0  -0.05685175768672932 -0.9209403361265706 0  -0.4333988412748478 -0.8176819250843602 0  -0.9034111260704363 0.0887654107471646 0  -0.6989552740101379 -0.5864931210489334 0  -0.8714028532829563 -0.2698026210420308 0  -0.8013080857299983 0.4363691176253084 0  -0.2481601609531771 0.8808356362328713 0  0.8842067712579876 0.2251467096670516 0  0.1134538428128295 0.905340201589466 0  -0.570605438204098 0.712139009878358 0  0.7112688741091725 0.5538117193112041 0  0.452525574227554 0.7897421306025125 0  -0.3414355450199018 -0.8470327978772133 0  -0.2722945687367302 -0.7795589152549504 0  -0.176576105156839 -0.8085455314322503 0  -0.2031209908764935 -0.7119330813064393 0  -0.1061557382562923 -0.7353134556475898 0  -0.1333035542007324 -0.6409639967973384 0  -0.2299184279376776 -0.6164193418897171 0  -0.1601119471595458 -0.54529184011634 0  -0.06357463522939985 -0.5701741575797087 0  -0.09032162636019739 -0.4742273366340999 0  -0.1868562855385441 -0.4493347341753485 0  -0.117046929234102 -0.3781819966449316 0  -0.02050917575693966 -0.4030602908613675 0  -0.0472350584910881 -0.3070176344655209 0  -0.1437733128306913 -0.2821416475614442 0  -0.0739610774831635 -0.2109756011171108 0  0.02257719930149374 -0.235851485704148 0  -0.004148720057926295 -0.139808989836838 0  -0.1006869803289499 -0.1149330282694977 0  -0.03087462595659208 -0.04376643140190471 0  0.0656636315897145 -0.06864240539143765 0  0.03893772765880558 0.02740016212137307 0  -0.05760052979284924 0.05227613665553106 0  0.01221182440690084 0.1234427327203318 0  0.1354759852960226 0.002524188547464334 0  -0.08432643320192985 0.148318706789379 0  -0.01451407888558151 0.2194853032252033 0  -0.1110523365139031 0.2443612772967803 0  -0.1808646908484775 0.173194680766891 0  -0.04123998220241553 0.315527873783825 0  0.05529827543983795 0.2906518996877751 0  -0.2075905941485477 0.2692372513676639 0  -0.2774029484815027 0.1980706548281711 0  0.02857237214627389 0.3866944703054201 0  0.1251106298237271 0.3618184961996656 0  -0.3041288518012371 0.2941132254553123 0  -0.373941206130737 0.2229466289036679 0  -0.3472153028010233 0.1269040582948285 0  -0.4437535604451317 0.1517800323591314 0  -0.4170276570999563 0.05573746176580362 0  0.09838472652330868 0.4578610668402722 0  0.1949229842060436 0.4329850927409744 0  0.2216488875220583 0.3369425220720634 0  0.001846468928787241 0.4827370409465461 0  0.2914612419062723 0.4081091186149362 0  0.3181871452245917 0.3120665479392379 0  0.1622018885918542 -0.09351838185489339 0  0.2320142427445476 -0.02235178586434626 0  0.2587401460177972 -0.118394356383868 0  0.3285525002221444 -0.04722776008099268 0  0.355278403500862 -0.1432703305483377 0  0.425090757710193 -0.07210373417758013 0  0.4518166609414709 -0.1681463046302946 0  0.3820043067617475 -0.2393129009891954 0  -0.5135659147205343 0.08061343582625011 0  -0.4868400114142113 -0.01542913472109753 0  -0.4006671094830494 0.3189891995317588 0  -0.3308547551262987 0.3901557961000013 0  0.5216290151741039 -0.096979708262352 0  0.4949031119391835 -0.0009371377965180921 0  0.3879994996339942 0.383233144478657 0  0.4785425641644531 -0.2641888750481178 0  0.4087302099982131 -0.3353554713601328 0  -0.5402918180845104 0.1766560063925543 0  0.1681970808903585 0.5290276634131116 0  -0.5833782689883096 0.009446839324014659 0  -0.5566523656635333 -0.08659573119040014 0  -0.4601141081252834 -0.11147170523539 0  -0.5299264623348398 -0.1826383016662359 0  0.5914413694583999 -0.0258131118722005 0  0.5647154662373796 0.07022945859759529 0  0.3612735963096737 0.4792757151845156 0  -0.427393012852807 0.415031770190663 0  -0.3575806584661602 0.4861983667766743 0  -0.4333882048501471 -0.2075142756926602 0  -0.5032005590539431 -0.2786808720836153 0  0.3121919526079304 -0.31047949733501 0  0.3389178558476052 -0.4065220676696347 0  0.5052684673828014 -0.360231445414556 0  0.618167272630094 -0.1218556823606219 0  0.4578118540444858 0.4543997410414525 0  0.4845377573653067 0.3583571703312383 0  -0.5997388165030568 -0.2538048980749383 0  -0.5726182745709099 -0.349737651792752 0  -0.476408882694728 -0.3747051396862863 0  0.242379598375754 -0.381646093720459 0  0.2691055017067961 -0.477688663991579 0  0.3656437590571927 -0.5025646379868325 0  0.2958314049388511 -0.5737312342652557 0  0.199293147626674 -0.548855260270697 0  -0.3635758506296833 -0.1363476792956745 0  0.2052883395042254 0.07369078451466132 0  -0.2610424007352268 0.4613223926703736 0  -0.2877683040726436 0.5573649633665057 0  0.4681772088477804 0.09510543263094937 0  -0.6531906232170687 -0.06171975714986294 0  0.6612537237706846 0.04535348453420714 0  0.6345278205785211 0.1413960550056769 0  -0.6799165265390616 0.03432281335059308 0  0.2260190508484043 -0.6448978305283196 0  0.4310859507295732 0.5504423117723948 0  -0.4541189162096942 0.5110743408881729 0  -0.5239312706109315 0.4399077442776883 0  -0.5458156360021287 -0.4457588689026649 0  -0.4496591618223829 -0.4707412880451375 0  0.5543501117845178 0.4295237668922745 0  0.3923696622464402 -0.5986072082673006 0  0.1294807921938694 -0.6200218618266979 0  -0.3799231786899924 -0.3995959535426268 0  -0.3204893995410594 0.03086148769718712 0  0.5750808215247509 -0.2890648491214648 0  0.4621820163455043 -0.5274406120320946 0  -0.3368499472862063 -0.232390250243194 0  0.188927791846685 -0.1895609528188325 0  0.3345476929550765 0.5753182859113447 0  -0.1912300463563641 0.5324889892380295 0  -0.2179559496650557 0.6285315599584633 0  -0.1214176919454829 0.6036555858383672 0  -0.1481435952457844 0.6996981565728593 0  -0.05160533746994912 0.6748221824573221 0  0.581076014925286 0.3334811961817142 0  0.6018067247361701 -0.3851074194357652 0  0.4869869017200988 -0.6228910692174049 0  0.1572340394148161 -0.7187357914562776 0  0.7302509579962368 0.1162932563386977 0  0.7034810132252184 0.2123235711332083 0  -0.3143635832681669 0.653279395590162 0  0.6710557319075262 -0.3140975865440377 0  -0.5194676125583334 -0.541906626672413 0  -0.4229920318077112 -0.5668006585662466 0  -0.6665840080286811 -0.3244548240554672 0  -0.6957825468412788 -0.2288428123419464 0  0.7535309802004999 0.02387228508192352 0  0.6483464994801122 0.4039107900221328 0  0.05983966168358921 -0.6916336864099627 0  0.1027548840652149 -0.5239793035500566 0  -0.2670375931113356 -0.1612236540510189 0  0.51126366033821 0.2623145996200579 0  0.2483747908044156 0.2408999514355696 0  -0.164504143066976
[...]
<PointData  Scalars="f_30"> 
<DataArray  type="Float64"  Name="f_30"  format="ascii">1.4411014862341082e-01  1.4577761123425359e-01  1.4660204198468116e-01  1.4736090154000528e-01  1.4813806201245522e-01  1.4938203528680033e-01  1.5095305505205969e-01  1.5189952310186608e-01  1.5318229423511981e-01  1.5463035305349157e-01  1.5493728610692720e-01  1.5424820461944996e-01  1.5273189404754517e-01  1.5101428554442992e-01  1.4964423011243544e-01  1.4890550008036402e-01  1.4874287969886554e-01  1.4918258489628811e-01  1.5036249989840844e-01  1.5206885789519406e-01  1.5386274721680945e-01  1.5465049394309349e-01  1.5340853375315130e-01  1.5039555147935527e-01  1.4659975523676486e-01  1.4323874821230120e-01  1.4213419442315758e-01  1.4220692557363063e-01  1.4299043437182141e-01  1.4443748258767738e-01  1.4557879605461149e-01  1.4555489856175599e-01  1.4536144942913257e-01  1.4606862972131002e-01  1.4613101385486418e-01  1.4526826019037270e-01  1.4307038986065210e-01  1.4039193920963589e-01  1.3879259888541995e-01  1.3757239958757764e-01  1.3707563925254990e-01  1.3722440030940369e-01  1.3808449771315440e-01  1.4022091946373610e-01  1.4191458479230598e-01  1.4239183526341342e-01  1.4158030486642734e-01  1.4003806707583841e-01  1.3934476993386422e-01  1.3860936035750634e-01  1.3775241488912332e-01  1.3624730511552235e-01  1.3416069092747845e-01  1.3222725104474850e-01  1.3128483371629415e-01  1.3253077740493971e-01  1.3505206100006195e-01  1.3790068792916610e-01  1.4034354792503015e-01  1.4189225043565853e-01  1.4277923258089398e-01  1.4343252872255474e-01  1.4345320670853229e-01  1.2613402679688981e-01  1.4472533328821355e-01  1.3536886971373852e-01  1.4071109541821844e-01  1.3421932149179705e-01  1.3641383576858143e-01  1.4377833949505650e-01  1.3571432040285455e-01  1.3150113541671865e-01  1.2998034838875272e-01  1.3920182256912894e-01  1.3713594212827751e-01  1.3879873079836882e-01  1.4206144978000323e-01  1.4570900672732728e-01  1.2841731958682015e-01  1.3167440660386667e-01  1.3524978202641030e-01  1.2894852334486184e-01  1.3470234061733896e-01  1.3344887685773787e-01  1.3702255998456417e-01  1.3095603722549831e-01  1.3752333710213202e-01  1.3477977437867181e-01  1.4350268736417482e-01  1.3908399842193941e-01  1.4127061754846540e-01  1.4327085266975831e-01  1.4146870250192520e-01  1.4566482041188533e-01  1.3328234915821896e-01  1.1316510745692092e-01  1.1410067478597342e-01  8.7875920084741280e-02  8.8606947421749224e-02  6.3380177637603327e-02  6.4024236414960869e-02  4.3174027605632895e-02  4.4216501012365912e-02  2.8475850215171516e-02  2.9025143708174828e-02  1.8314083824332861e-02  1.8971036233510513e-02  1.1839380356805715e-02  1.2261000099366665e-02  7.8509439942105325e-03  8.2791341421675612e-03  5.6472157591484200e-03  5.9548674717379560e-03  4.6460511335606140e-03  5.0085792375261073e-03  4.6890920382572348e-03  4.9552522855125713e-03  5.6817355441142964e-03  5.7384709578443228e-03  6.6818661652201274e-03  8.3111749852289515e-03  1.0381821434344003e-02  9.4063789111925832e-03  1.3370772468597478e-02  1.1985612505312243e-02  1.4752209167412872e-02  1.4607216551562345e-02  1.9102674493429915e-02  1.8695510259556750e-02  2.2408568277623032e-02  2.3504158646460254e-02  1.6725923758060559e-02  2.7625147896676857e-02  2.1605066086933671e-02  2.8825706431643894e-02  2.9954132127115656e-02  2.0804782199157310e-02  3.0858800471958513e-02  3.4278186118322236e-02  2.5749115643483769e-02  6.7884717762330569e-03  8.4394949761328487e-03  1.0543829452217287e-02  1.3596337443377913e-02  1.7328861523102285e-02  2.2519949440417450e-02  2.8681401365932172e-02  2.4081993374172543e-02  3.5466209700762294e-02  3.0163222663621710e-02  3.4695324813463817e-02  3.5209939069136234e-02  3.6895288458220883e-02  3.1396947786268441e-02  4.2248098962980915e-02  3.8730023580665761e-02  3.4912986657448165e-02  4.4596527173300378e-02  4.4149960717495607e-02  4.7960170041506371e-02  4.3602368779150545e-02  2.8013233222291423e-02  4.2685775610722669e-02  4.9652662250592547e-02  4.5204380756104959e-02  5.4802209679872239e-02  5.1841033614427739e-02  5.4701993949716247e-02  2.8702729564559160e-02  4.5105986459937020e-02  2.2492925237669933e-02  3.4600928154838805e-02  5.3500004149779637e-02  5.8150217958005145e-02  6.6277728116670459e-02  5.4611596695190022e-02  6.3638347633742182e-02  6.7931319916271424e-02  5.1161617763406345e-02  2.3738482875975363e-02  3.7881470910417797e-02  5.2460854283322172e-02  5.8443040499977505e-02  4.5114368503145964e-02  1.8046194202406406e-02  8.0718287734734030e-03  3.9004440211002432e-02  6.1270203320568782e-02  2.9232436696656018e-02  6.5892961575449507e-02  6.7791017178096033e-02  6.5016437182728107e-02  7.2774844827456650e-02  6.8969472104402463e-02  8.2847925705153300e-02  7.5882322989837533e-02  7.4310071476507381e-02  7.6319512500875930e-02  6.1460954975874692e-02  8.2213571582540806e-02  7.6172210791084632e-02  5.6783103020337317e-02  3.9611731960976393e-02  1.3048749920895166e-02  6.0194429168032255e-02  7.2254283679093215e-02  1.9845848542467400e-02  9.5596450299687205e-03  7.2563891399797548e-02  4.6308783907174189e-02  7.1637445197681962e-02  5.7757458558166518e-02  8.6100286165095116e-02  7.4038243463087766e-02  7.2013823442652086e-02  7.8555078055441124e-02  9.6601019379956007e-02  8.4592098030436200e-02  9.0892114098261048e-02  9.0301743877424387e-02  9.0552679264039093e-02  8.7791212595802567e-02  8.8919508112702730e-02  7.6465541321817640e-02  8.9203786622941178e-02  8.7683925680276095e-02  9.4482878380381316e-02  1.0118921350039083e-01  7.3341202735147423e-02  3.6076095123893336e-02  1.2148119262991149e-02  4.7524329936619966e-02  1.5398781510200200e-02  2.8491324190216903e-02  2.0891253944735177e-02  9.4305661230726118e-02  1.0024089200351571e-01  9.9549488365734795e-02  7.7206552785462457e-02  1.0205790975152110e-01  9.4820923321875972e-02  1.0316050403709219e-01  1.0279612810545329e-01  9.4502952125942410e-02  6.6830780999423578e-02  9.0236315130286002e-02  1.0264957009934493e-01  8.3644734089495340e-02  9.4372422781264939e-02  1.1438363935537864e-01  9.6720090225003913e-02  9.7621931895068556e-02  1.0417018261643836e-01  1.0646462156805611e-01  1.1800846335997466e-01  1.1273541527506875e-01  1.1470302326007278e-01  1.1954017100321548e-01  1.0522367426536637e-01  1.0538847166407493e-01  9.5154714408591801e-02  1.2331136692639390e-01  1.1494593196054760e-01  1.0987911226847406e-01  1.0291708037146916e-01  9.3786647193405528e-02  8.9002782660452431e-02  4.5427907522257761e-02  6.6367781126111608e-02  1.9990292794595587e-02  3.2535086985627536e-02  3.0725397177981850e-02  1.4725201391789931e-02  1.3322055205322527e-02  9.9604393695339438e-02  2.2045399025606441e-02  1.7031359836675423e-02  1.2713206214762351e-02  1.0411402254312375e-02  1.4805110019989114e-02  8.4837418839126683e-02  1.1250180259447502e-01  1.1483376634210440e-01  1.2037386266488470e-01  1.0216208078425763e-02  8.1303398493518426e-03  6.6246981232736092e-03  7.2877407860316518e-02  7.0968030961568299e-02  9.9069230224659757e-02  1.1656981967237999e-01  1.2074671156957027e-01  1.2624243571223515e-02  3.4296128579212139e-02  1.1636221258823781e-02  7.7673617659409612e-03  5.0847373260575354e-02  6.7391061812692790e-03  7.4560276401796882e-02  1.0673663526241227e-01  8.5926531003876580e-02  3.2370314240096183e-02  5.2900376719612396e-02  8.0003565016790422e-03  6.2912183468177285e-02  1.4908084959330860e-02  3.7651618268326130e-02  2.4024062298959158e-02  8.9045653466271774e-02  4.6296351494026444e-02  8.1434965517023603e-02  5.8360556532532283e-02  4.7537314859700835e-02  1.8601180747755838e-02  1.0208751828221307e-01  6.1036185223695217e-03  9.6803203372823304e-02  1.9428700713653831e-02  5.5844610436356929e-03  1.7122692662567350e-02  4.8893448122541469e-02  6.6367311650595062e-02  5.6157026047129091e-02  9.0245342693489310e-03  2.8061656993526831e-02  9.3515533399096337e-03  1.1448998693876342e-01  2.2171664617953491e-02  1.2158647284752725e-02  6.8418233025152514e-02  3.6439845236279737e-02  3.0144460727573211e-02  8.5287060125245090e-02  1.1684394409856975e-01  4.4522377321460319e-02  9.3349592729036202e-02  6.4394788092496213e-02  1.8909909854016242e-02  4.4499541840758362e-02  9.0618554190508821e-02  1.2237174153621617e-01  6.6208831862738543e-02  1.2000993745201136e-01  2.4392027795902597e-02  4.8640402703231701e-02  6.7986581710845900e-02  5.1277960466291031e-02  1.2417404512088412e-01  1.2072081261868001e-01  1.1550891857267571e-01  1.2209689582430776e-01  9.4660586035260258e-02  1.1816120002183574e-01  1.1991103071105301e-01  1.1623555845710008e-01  1.2834407395863304e-01  1.1854548592167992e-01  1.2490557790337804e-01  1.1632978448893994e-01  1.2240325475773065e-01  1.1814341844012123e-01  1.2803534278393958e-01  1.4414299914587347e-01  1.4115397675458505e-01  1.1785876560250472e-01  1.1413604944393192e-01  1.3004562872817452e-01  1.3665085055329240e-01  1.3615832063759020e-01  1.3399383591902927e-01  1.3784013741731724e-01  1.3747472731623342e-01  1.4325973228700342e-01  1.4213382528825524e-01  1.3566213059236570e-01  1.4291016845393054e-01  1.4613712320075417e-01  1.4059130759378877e-01  1.4461074641500085e-01  1.3783140257613277e-01  1.4472912098795598e-01  1.3459132670115326e-01  1.4690983169898661e-01  1.4147047965663959e-01  1.1547460402054414e-01  1.2059090554306837e-01  1.1616049568251344e-01  1.3007448248675196e-01  1.2371766304295755e-01  1.1439262555552920e-01  1.2475758139563382e-01  1.3304048571157331e-01  1.2798997912467275e-01  1.3250608051634857e-01  1.2211719622224326e-01  1.2688990174224252e-01  1.4091865132743792e-01  1.3557535997608663e-01  1.3573165354138650e-01  1.2169239062183047e-01  1.1800056401621471e-01  1.3891861023726129e-01  1.1946778577439505e-01  1.1492915778668152e-01  1.1770882290980757e-01  1.2769081738906840e-01  1.2794839300811131e-01  1.2720647775314051e-01  1.3407252017192545e-01  1.4024199780048999e-01  1.2893568846042963e-01  </DataArray> 
</PointData> 
</Piece>
</UnstructuredGrid>
</VTKFile>