<?xml version="1.0"?>
<VTKFile type="UnstructuredGrid"  version="0.1"  >
<UnstructuredGrid>
<Piece  NumberOfPoints="411" NumberOfCells="757">
<Points>
<DataArray  type="Float64"  NumberOfComponents="3"  format="ascii">1 0 0  0.9950307753424469 0.09956784682521302 0  0.9801724877581199 0.1981461436466988 0  0.9555728055899844 0.2947551750468275 0  0.9214762115412887 0.3884347970554571 0  0.878221572847902 0.4782539795804704 0  0.8262387735293077 0.5633200592174801 0  0.7660444420435373 0.6427876109681997 0  0.6982368166884868 0.7158668506228854 0  0.6234898000711532 0.7818314838935776 0  0.5425462616716372 0.8400259245678857 0  0.4562106547492349 0.8898718101464247 0  0.3653410213606504 0.9308737498238721 0  0.2708404647247718 0.9626242479117538 0  0.1736481738855714 0.9848077536789637 0  0.0747300894292086 0.9972037974927204 0  -0.02493069619005662 0.9996891818897907 0  -0.1243437093935069 0.9922392060054184 0  -0.2225209388936208 0.9749279110549156 0  -0.3184866553565292 0.9479273444519951 0  -0.4112871082861543 0.9115058499854036 0  -0.5000000051436531 0.8660254008147491 0  -0.5837436773981763 0.8119380020036344 0  -0.6616858425795832 0.7497811985704543 0  -0.7330518765357205 0.6801727326991717 0  -0.7971325115562669 0.6038044046046684 0  -0.8532908855881599 0.5214351969057841 0  -0.9009688713163121 0.4338837320285363 0  -0.9396926235768162 0.3420201356577126 0  -0.9690772883116017 0.2467573895117082 0  -0.988830827546393 0.149042257410158 0  -0.9987569216736767 0.04984587654883038 0  -0.9987569207643853 -0.04984589476821013 0  -0.9888308249189958 -0.1490422748417993 0  -0.9690772841339318 -0.2467574059184503 0  -0.9396926179877757 -0.342020151013475 0  -0.9009688645070715 -0.4338837461680701 0  -0.8532908777076588 -0.5214352098016525 0  -0.7971325028545885 -0.6038044160924789 0  -0.733051867136826 -0.6801727428287707 0  -0.6616858327031787 -0.7497812072864329 0  -0.5837436670143792 -0.8119380094690761 0  -0.4999999948144361 -0.8660254067783253 0  -0.4112870980061251 -0.9115058546239294 0  -0.3184866448956037 -0.9479273479666792 0  -0.2225209288760807 -0.9749279133413538 0  -0.1243436996694762 -0.9922392072239975 0  -0.02493068706666702 -0.9996891821173138 0  0.07473009780364996 -0.9972037968651427 0  0.173648181732695 -0.984807752295304 0  0.2708404716990337 -0.9626242459495007 0  0.3653410275156022 -0.9308737474082316 0  0.4562106603153321 -0.8898718072928531 0  0.5425462662721159 -0.8400259215965816 0  0.6234898039414718 -0.7818314808071015 0  0.6982368197427202 -0.7158668476438702 0  0.766044444337473 -0.6427876082343936 0  0.8262387753254992 -0.5633200565829511 0  0.8782215740169719 -0.4782539774336984 0  0.9214762123114304 -0.3884347952284652 0  0.9555728060786477 -0.2947551734626198 0  0.9801724879568812 -0.1981461426634838 0  0.9950307754096857 -0.09956784615326231 0  0.4589642888772116 -0.7886666505082998 0  -0.4146821997961077 0.8062642543788969 0  -0.8028358043309298 -0.4537385104606888 0  0.8233258125387509 0.3935956744220127 0  -0.2471206113548315 -0.8783188826887464 0  -0.8715793672955142 0.2802819854274809 0  0.2905940051230275 0.8649091161708946 0  0.86399466449859 -0.3164122903590356 0  0.112791402386944 -0.904368809873449 0  -0.5665381108694804 -0.7154896345070572 0  -0.9173049500615473 -0.08133814122137192 0  0.9121811560431864 0.03626325804911925 0  -0.7167620814504039 0.5847320807467508 0  -0.06706516930677842 0.9174906564893126 0  0.6037362602342264 0.6841163520310896 0  0.6726959518980961 -0.6381199002810816 0  0.7787075156354877 -0.4792865777385625 0  0.8990849184913738 -0.1269663189177567 0  0.2893074720196664 -0.8597373315048338 0  -0.05685175768672932 -0.9209403361265706 0  -0.4333988412748478 -0.8176819250843602 0  -0.9034111260704363 0.0887654107471646 0  -0.6989552740101379 -0.5864931210489334 0  -0.8714028532829563 -0.2698026210420308 0  -0.8013080857299983 0.4363691176253084 0  -0.2481601609531771 0.8808356362328713 0  0.8842067712579876 0.2251467096670516 0  0.1134538428128295 0.905340201589466 0  -0.570605438204098 0.712139009878358 0  0.7112688741091725 0.5538117193112041 0  0.452525574227554 0.7897421306025125 0  -0.3414355450199018 -0.8470327978772133 0  -0.2722945687367302 -0.7795589152549504 0  -0.176576105156839 -0.8085455314322503 0  -0.2031209908764935 -0.7119330813064393 0  -0.1061557382562923 -0.7353134556475898 0  -0.1333035542007324 -0.6409639967973384 0  -0.2299184279376776 -0.6164193418897171 0  -0.1601119471595458 -0.54529184011634 0  -0.06357463522939985 -0.5701741575797087 0  -0.09032162636019739 -0.4742273366340999 0  -0.1868562855385441 -0.4493347341753485 0  -0.117046929234102 -0.3781819966449316 0  -0.02050917575693966 -0.4030602908613675 0  -0.0472350584910881 -0.3070176344655209 0  -0.1437733128306913 -0.2821416475614442 0  -0.0739610774831635 -0.2109756011171108 0  0.02257719930149374 -0.235851485704148 0  -0.004148720057926295 -0.139808989836838 0  -0.1006869803289499 -0.1149330282694977 0  -0.03087462595659208 -0.04376643140190471 0  0.0656636315897145 -0.06864240539143765 0  0.03893772765880558 0.02740016212137307 0  -0.05760052979284924 0.05227613665553106 0  0.01221182440690084 0.1234427327203318 0  0.1354759852960226 0.002524188547464334 0  -0.08432643320192985 0.148318706789379 0  -0.01451407888558151 0.2194853032252033 0  -0.1110523365139031 0.2443612772967803 0  -0.1808646908484775 0.173194680766891 0  -0.04123998220241553 0.315527873783825 0  0.05529827543983795 0.2906518996877751 0  -0.2075905941485477 0.2692372513676639 0  -0.2774029484815027 0.1980706548281711 0  0.02857237214627389 0.3866944703054201 0  0.1251106298237271 0.3618184961996656 0  -0.3041288518012371 0.2941132254553123 0  -0.373941206130737 0.2229466289036679 0  -0.3472153028010233 0.1269040582948285 0  -0.4437535604451317 0.1517800323591314 0  -0.4170276570999563 0.05573746176580362 0  0.09838472652330868 0.4578610668402722 0  0.1949229842060436 0.4329850927409744 0  0.2216488875220583 0.3369425220720634 0  0.001846468928787241 0.4827370409465461 0  0.2914612419062723 0.4081091186149362 0  0.3181871452245917 0.3120665479392379 0  0.1622018885918542 -0.09351838185489339 0  0.2320142427445476 -0.02235178586434626 0  0.2587401460177972 -0.118394356383868 0  0.3285525002221444 -0.04722776008099268 0  0.355278403500862 -0.1432703305483377 0  0.425090757710193 -0.07210373417758013 0  0.4518166609414709 -0.1681463046302946 0  0.3820043067617475 -0.2393129009891954 0  -0.5135659147205343 0.08061343582625011 0  -0.4868400114142113 -0.01542913472109753 0  -0.4006671094830494 0.3189891995317588 0  -0.3308547551262987 0.3901557961000013 0  0.5216290151741039 -0.096979708262352 0  0.4949031119391835 -0.0009371377965180921 0  0.3879994996339942 0.383233144478657 0  0.4785425641644531 -0.2641888750481178 0  0.4087302099982131 -0.3353554713601328 0  -0.5402918180845104 0.1766560063925543 0  0.1681970808903585 0.5290276634131116 0  -0.5833782689883096 0.009446839324014659 0  -0.5566523656635333 -0.08659573119040014 0  -0.4601141081252834 -0.11147170523539 0  -0.5299264623348398 -0.1826383016662359 0  0.5914413694583999 -0.0258131118722005 0  0.5647154662373796 0.07022945859759529 0  0.3612735963096737 0.4792757151845156 0  -0.427393012852807 0.415031770190663 0  -0.3575806584661602 0.4861983667766743 0  -0.4333882048501471 -0.2075142756926602 0  -0.5032005590539431 -0.2786808720836153 0  0.3121919526079304 -0.31047949733501 0  0.3389178558476052 -0.4065220676696347 0  0.5052684673828014 -0.360231445414556 0  0.618167272630094 -0.1218556823606219 0  0.4578118540444858 0.4543997410414525 0  0.4845377573653067 0.3583571703312383 0  -0.5997388165030568 -0.2538048980749383 0  -0.5726182745709099 -0.349737651792752 0  -0.476408882694728 -0.3747051396862863 0  0.242379598375754 -0.381646093720459 0  0.2691055017067961 -0.477688663991579 0  0.3656437590571927 -0.5025646379868325 0  0.2958314049388511 -0.5737312342652557 0  0.199293147626674 -0.548855260270697 0  -0.3635758506296833 -0.1363476792956745 0  0.2052883395042254 0.07369078451466132 0  -0.2610424007352268 0.4613223926703736 0  -0.2877683040726436 0.5573649633665057 0  0.4681772088477804 0.09510543263094937 0  -0.6531906232170687 -0.06171975714986294 0  0.6612537237706846 0.04535348453420714 0  0.6345278205785211 0.1413960550056769 0  -0.6799165265390616 0.03432281335059308 0  0.2260190508484043 -0.6448978305283196 0  0.4310859507295732 0.5504423117723948 0  -0.4541189162096942 0.5110743408881729 0  -0.5239312706109315 0.4399077442776883 0  -0.5458156360021287 -0.4457588689026649 0  -0.4496591618223829 -0.4707412880451375 0  0.5543501117845178 0.4295237668922745 0  0.3923696622464402 -0.5986072082673006 0  0.1294807921938694 -0.6200218618266979 0  -0.3799231786899924 -0.3995959535426268 0  -0.3204893995410594 0.03086148769718712 0  0.5750808215247509 -0.2890648491214648 0  0.4621820163455043 -0.5274406120320946 0  -0.3368499472862063 -0.232390250243194 0  0.188927791846685 -0.1895609528188325 0  0.3345476929550765 0.5753182859113447 0  -0.1912300463563641 0.5324889892380295 0  -0.2179559496650557 0.6285315599584633 0  -0.1214176919454829 0.6036555858383672 0  -0.1481435952457844 0.6996981565728593 0  -0.05160533746994912 0.6748221824573221 0  0.581076014925286 0.3334811961817142 0  0.6018067247361701 -0.3851074194357652 0  0.4869869017200988 -0.6228910692174049 0  0.1572340394148161 -0.7187357914562776 0  0.7302509579962368 0.1162932563386977 0  0.7034810132252184 0.2123235711332083 0  -0.3143635832681669 0.653279395590162 0  0.6710557319075262 -0.3140975865440377 0  -0.5194676125583334 -0.541906626672413 0  -0.4229920318077112 -0.5668006585662466 0  -0.6665840080286811 -0.3244548240554672 0  -0.6957825468412788 -0.2288428123419464 0  0.7535309802004999 0.02387228508192352 0  0.6483464994801122 0.4039107900221328 0  0.05983966168358921 -0.6916336864099627 0  0.1027548840652149 -0.5239793035500566 0  -0.2670375931113356 -0.1612236540510189 0  0.51126366033821 0.2623145996200579 0  0.2483747908044156 0.2408999514355696 0  -0.164504143066976
[...]
<PointData  Scalars="f_30"> 
<DataArray  type="Float64"  Name="f_30"  format="ascii">8.4257868018846327e-02  8.4721831152554494e-02  8.5140192635798140e-02  8.5544728223907948e-02  8.5927527118450100e-02  8.6297055669985911e-02  8.6634089474492706e-02  8.6900078930071803e-02  8.7135484049784995e-02  8.7346101487997152e-02  8.7491130637002867e-02  8.7597274880610781e-02  8.7663318802923856e-02  8.7687270809950243e-02  8.7678772511832717e-02  8.7643955240070251e-02  8.7571099072646527e-02  8.7464919688318404e-02  8.7334130887477532e-02  8.7176077040506880e-02  8.6999277329386823e-02  8.6794546690586741e-02  8.6557816764008894e-02  8.6312401173757214e-02  8.6055739000700182e-02  8.5783033101126602e-02  8.5542135291436713e-02  8.5278802944691784e-02  8.5004234506110082e-02  8.4759521645087640e-02  8.4531037080487259e-02  8.4269830288834918e-02  8.4005420136956083e-02  8.3778874770720865e-02  8.3541151675418285e-02  8.3304625086277451e-02  8.3055549322362393e-02  8.2809131963545182e-02  8.2605849418915273e-02  8.2397408277147907e-02  8.2201321214829454e-02  8.2009345140179338e-02  8.1823131294568460e-02  8.1677977896715867e-02  8.1534888071910949e-02  8.1393709431946321e-02  8.1256102475866163e-02  8.1124106210991434e-02  8.1041412565507301e-02  8.0969287218860278e-02  8.0927774102100211e-02  8.0916652467880476e-02  8.0942609979358662e-02  8.1019008731847655e-02  8.1139164957190202e-02  8.1334452546850705e-02  8.1578042566082157e-02  8.1868181033602980e-02  8.2207928291639032e-02  8.2577194623428260e-02  8.2975403994103011e-02  8.3408730569507844e-02  8.3829003520136863e-02  8.0702867539608855e-02  8.6499112961137201e-02  8.2653461454619243e-02  8.5760909623761761e-02  8.1153793822293541e-02  8.4608293555087047e-02  8.7326412407960352e-02  8.2504444984546829e-02  8.0716114912972953e-02  8.1806715613073636e-02  8.3657602639319747e-02  8.4126152218119088e-02  8.5643299855202470e-02  8.7218157248957623e-02  8.6895795023466005e-02  8.1225658522453698e-02  8.1732252882373360e-02  8.3327243505232684e-02  8.0609031624918129e-02  8.0944404932349737e-02  8.1554051031539787e-02  8.4051031851453351e-02  8.2206903910061455e-02  8.3091845360775060e-02  8.5099253180479451e-02  8.6924237573451649e-02  8.5009833789155498e-02  8.7308615067039685e-02  8.6072064018369657e-02  8.6366987668395692e-02  8.7163842927581406e-02  8.1316146339381654e-02  8.0319138596725403e-02  8.0180950453615188e-02  7.8773648609373456e-02  7.8663750065684671e-02  7.6760114844545688e-02  7.7018061403545474e-02  7.4575228622053347e-02  7.4561932456659402e-02  7.2092735572385741e-02  7.2387775573493532e-02  6.9793996104387995e-02  6.9852358815734414e-02  6.7620239242357702e-02  6.7942095459534252e-02  6.5994493747194294e-02  6.6120386695073877e-02  6.4855996022675139e-02  6.5178865469007308e-02  6.4496587410934100e-02  6.4673155715538735e-02  6.4819736992067042e-02  6.5118248755816427e-02  6.5945662223268656e-02  6.5495396550709351e-02  6.6697292890452925e-02  6.7976457101713947e-02  6.9111103421158601e-02  6.8331835753694337e-02  7.0742880109076881e-02  7.0105016722579863e-02  7.1013777548713769e-02  7.0687088573580928e-02  7.3081962143920765e-02  7.2889253494532430e-02  7.3487281421739936e-02  7.3524201832652111e-02  7.1173010334858483e-02  7.4245386888476150e-02  7.2384917625242073e-02  7.5904291455857156e-02  7.6063498088076137e-02  7.3434301296044113e-02  7.6379257065593731e-02  7.6830871874152343e-02  7.4646105642609775e-02  6.5795747971636620e-02  6.7065890200680975e-02  6.7738665897313033e-02  6.9360224737502724e-02  7.0292619083371283e-02  7.2133322316419862e-02  7.3186496285045144e-02  7.1837926977870031e-02  7.5532218658984671e-02  7.4155381797484293e-02  7.6271689472473911e-02  7.6593114073580090e-02  7.5092087177408201e-02  7.4518513164431602e-02  7.8102567553902269e-02  7.4685711957239442e-02  7.3783694156978732e-02  7.7364899311647056e-02  7.8930052948590262e-02  7.7199363974407811e-02  7.6255140467895902e-02  7.3366406420685010e-02  7.5825124799498128e-02  7.7358780689452955e-02  7.7208257619030662e-02  8.0161156027724945e-02  7.9143414560271158e-02  7.9704360560405779e-02  7.3224092119241316e-02  7.5927667506639845e-02  7.1174154620130922e-02  7.3492714035557904e-02  7.6413697868108546e-02  7.7928353975805137e-02  8.1333868256056860e-02  7.9708885785382405e-02  7.8237596999570655e-02  7.8444355039487795e-02  7.6509157559501079e-02  7.1241866155320854e-02  7.3817509456952909e-02  7.5849764407469378e-02  7.6301280762380630e-02  7.4684934692005045e-02  7.0645064864158308e-02  6.7269118741394296e-02  7.7511011758973972e-02  8.0711587873221913e-02  7.4519058694675733e-02  7.9016321621871610e-02  7.9742168256609403e-02  7.9927372802523003e-02  7.9978498845519053e-02  7.7135233431941785e-02  8.3109820210090918e-02  8.1849645672349619e-02  8.1542668575025110e-02  7.8989373371520330e-02  7.7456583035144660e-02  8.2658922262596704e-02  7.7972491793165732e-02  7.5954483919774815e-02  7.4722492199964102e-02  6.9442320389842466e-02  7.7417101405641175e-02  7.7855440344857224e-02  7.0890729384007506e-02  6.6974008516632155e-02  8.2329164993368606e-02  7.8940897274757990e-02  8.2054149794704309e-02  8.0731907437643011e-02  8.3583807135399632e-02  8.2679250572348206e-02  8.1436667432443155e-02  7.8787933380275912e-02  7.9453785228840168e-02  7.8257930366838133e-02  8.1972582974869909e-02  8.2377096592179747e-02  8.3466711616632841e-02  7.9743989399446047e-02  7.9743431026264425e-02  7.8606306202230622e-02  8.0266549951111446e-02  8.0372327754426917e-02  8.1778667291614857e-02  8.3883413472728874e-02  7.7443619680261019e-02  7.3333689228394477e-02  6.8368760926061103e-02  7.8408486297300406e-02  7.1295628359826529e-02  7.5531422212342922e-02  7.2976423341027760e-02  8.1403513695968988e-02  8.3652241764068130e-02  8.3441740375266554e-02  8.1583821000735177e-02  8.4711569730841901e-02  8.4357156210557185e-02  8.3973568394896989e-02  8.4982876987258441e-02  8.4514615496487297e-02  8.2028546771824959e-02  8.4214311777744785e-02  8.2235284144437218e-02  8.1200527935874900e-02  7.9495826766045080e-02  8.3186745973383908e-02  8.2428239562252786e-02  7.9104259068715710e-02  7.9446470685220122e-02  8.3652884604952044e-02  8.5573394509531789e-02  8.4875907966754593e-02  8.1913465155776466e-02  8.5845510622822419e-02  8.0935417822742536e-02  8.0575965915833547e-02  7.9732440405337890e-02  8.3122439951268640e-02  8.2146873155049524e-02  8.0815863825034182e-02  7.9628954979571509e-02  7.8897718244458612e-02  7.9075203722787063e-02  7.5108045616097283e-02  7.6913051742750746e-02  7.0470767091292075e-02  7.3295567945268744e-02  7.2426866570112228e-02  6.9068254796917500e-02  6.8122676921102590e-02  7.9994433915073951e-02  7.0622692883126309e-02  6.9380083845542354e-02  6.9841849158461866e-02  6.7117368770514704e-02  6.8867456162262114e-02  7.8421440451288710e-02  7.9959163398334476e-02  7.9958369690659475e-02  8.0285082001894395e-02  6.8457292048471827e-02  6.6998557008716958e-02  6.6370397441893547e-02  7.8105585332211555e-02  7.8776976224715772e-02  8.0824994635138328e-02  8.1364822500153339e-02  8.1882956305895593e-02  7.0298962519488847e-02  7.6374648131955838e-02  6.8485209956086507e-02  6.6427573627814540e-02  7.5872514562937393e-02  6.5479877100707379e-02  7.9906232792111453e-02  8.2110572871618770e-02  8.0352800391005286e-02  7.3707873853240458e-02  7.9070045405319617e-02  6.7723533828294061e-02  7.8417555440230130e-02  6.9172613516655435e-02  7.6552381113957624e-02  7.4172491074099747e-02  8.0734559941777168e-02  7.6116116115830287e-02  8.2514760595929937e-02  7.9460860143488771e-02  7.9317521059641197e-02  7.1149932503262167e-02  8.4531207988591192e-02  6.6146275147510369e-02  8.4026865943862258e-02  7.1694642864666383e-02  6.5295265870521146e-02  7.2148783648940271e-02  7.9682114653735550e-02  8.1849464804074248e-02  7.8570026067999316e-02  6.6766522311815221e-02  7.2001739559795511e-02  6.8371177909425443e-02  8.4861973063616813e-02  7.3996470008271920e-02  6.9188217492466952e-02  8.0197485818030878e-02  7.7434029572410884e-02  7.5146248233947624e-02  8.1955692928028373e-02  8.3916988333047324e-02  7.9054153720171924e-02  8.3002207519178639e-02  8.1742487471128764e-02  7.1969880498783431e-02  7.7555262040754580e-02  8.4176652083191306e-02  8.6336070570551426e-02  8.0483678841648032e-02  8.4451822698808077e-02  7.1821881358095446e-02  7.5050917200712136e-02  7.7635521670935501e-02  7.6103128983517274e-02  8.4823066960502944e-02  8.6118933400201311e-02  8.2122251777442881e-02  8.5516091963208599e-02  8.0457853478845681e-02  8.3485639663816280e-02  8.1129110152182007e-02  8.1492665288918437e-02  8.3370735887468267e-02  8.6124676062223751e-02  8.6217381677961308e-02  8.3805378510780112e-02  8.6275437283857892e-02  8.2585291071491457e-02  8.5911037816353855e-02  8.6962088512314073e-02  8.6126970778521508e-02  8.0509820127054585e-02  8.0499230557175311e-02  8.1453863936679444e-02  8.4325666226049228e-02  8.2911128883708510e-02  8.1003908604422845e-02  8.4594655162178900e-02  8.4926959349971382e-02  8.6173136622328297e-02  8.5499104317341729e-02  8.2813587209209741e-02  8.7104395551288433e-02  8.6802715776679820e-02  8.5841234071108760e-02  8.7434609751487535e-02  8.3337028937388563e-02  8.7258630195610087e-02  8.2134166732323974e-02  8.6790198797741872e-02  8.7288271703065787e-02  8.0129813117872609e-02  8.4861167050578445e-02  8.1807791410403938e-02  8.0725052417834800e-02  8.5087277973285261e-02  8.0619692037966609e-02  8.5350478729590076e-02  8.0745268308713258e-02  8.6041417260845771e-02  8.2100232957903627e-02  8.4885641463978145e-02  8.6395496923783177e-02  8.3951247571574780e-02  8.2542643789925152e-02  8.0928800277738855e-02  8.2077841265047857e-02  8.1025650327714138e-02  8.5504070220461970e-02  8.3696250466068947e-02  8.0698796248714899e-02  8.3105238400274978e-02  8.6227700270706448e-02  8.1066789482213880e-02  8.5367414158753152e-02  8.1772583622155184e-02  8.3898662858055181e-02  8.0966611543813335e-02  </DataArray> 
</PointData> 
</Piece>
</UnstructuredGrid>
</VTKFile>