<?xml version="1.0"?>
<VTKFile type="UnstructuredGrid"  version="0.1"  >
<UnstructuredGrid>
<Piece  NumberOfPoints="411" NumberOfCells="757">
<Points>
<DataArray  type="Float64"  NumberOfComponents="3"  format="ascii">1 0 0  0.9950307753424469 0.09956784682521302 0  0.9801724877581199 0.1981461436466988 0  0.9555728055899844 0.2947551750468275 0  0.9214762115412887 0.3884347970554571 0  0.878221572847902 0.4782539795804704 0  0.8262387735293077 0.5633200592174801 0  0.7660444420435373 0.6427876109681997 0  0.6982368166884868 0.7158668506228854 0  0.6234898000711532 0.7818314838935776 0  0.5425462616716372 0.8400259245678857 0  0.4562106547492349 0.8898718101464247 0  0.3653410213606504 0.9308737498238721 0  0.2708404647247718 0.9626242479117538 0  0.1736481738855714 0.9848077536789637 0  0.0747300894292086 0.9972037974927204 0  -0.02493069619005662 0.9996891818897907 0  -0.1243437093935069 0.9922392060054184 0  -0.2225209388936208 0.9749279110549156 0  -0.3184866553565292 0.9479273444519951 0  -0.4112871082861543 0.9115058499854036 0  -0.5000000051436531 0.8660254008147491 0  -0.5837436773981763 0.8119380020036344 0  -0.6616858425795832 0.7497811985704543 0  -0.7330518765357205 0.6801727326991717 0  -0.7971325115562669 0.6038044046046684 0  -0.8532908855881599 0.5214351969057841 0  -0.9009688713163121 0.4338837320285363 0  -0.9396926235768162 0.3420201356577126 0  -0.9690772883116017 0.2467573895117082 0  -0.988830827546393 0.149042257410158 0  -0.9987569216736767 0.04984587654883038 0  -0.9987569207643853 -0.04984589476821013 0  -0.9888308249189958 -0.1490422748417993 0  -0.9690772841339318 -0.2467574059184503 0  -0.9396926179877757 -0.342020151013475 0  -0.9009688645070715 -0.4338837461680701 0  -0.8532908777076588 -0.5214352098016525 0  -0.7971325028545885 -0.6038044160924789 0  -0.733051867136826 -0.6801727428287707 0  -0.6616858327031787 -0.7497812072864329 0  -0.5837436670143792 -0.8119380094690761 0  -0.4999999948144361 -0.8660254067783253 0  -0.4112870980061251 -0.9115058546239294 0  -0.3184866448956037 -0.9479273479666792 0  -0.2225209288760807 -0.9749279133413538 0  -0.1243436996694762 -0.9922392072239975 0  -0.02493068706666702 -0.9996891821173138 0  0.07473009780364996 -0.9972037968651427 0  0.173648181732695 -0.984807752295304 0  0.2708404716990337 -0.9626242459495007 0  0.3653410275156022 -0.9308737474082316 0  0.4562106603153321 -0.8898718072928531 0  0.5425462662721159 -0.8400259215965816 0  0.6234898039414718 -0.7818314808071015 0  0.6982368197427202 -0.7158668476438702 0  0.766044444337473 -0.6427876082343936 0  0.8262387753254992 -0.5633200565829511 0  0.8782215740169719 -0.4782539774336984 0  0.9214762123114304 -0.3884347952284652 0  0.9555728060786477 -0.2947551734626198 0  0.9801724879568812 -0.1981461426634838 0  0.9950307754096857 -0.09956784615326231 0  0.4589642888772116 -0.7886666505082998 0  -0.4146821997961077 0.8062642543788969 0  -0.8028358043309298 -0.4537385104606888 0  0.8233258125387509 0.3935956744220127 0  -0.2471206113548315 -0.8783188826887464 0  -0.8715793672955142 0.2802819854274809 0  0.2905940051230275 0.8649091161708946 0  0.86399466449859 -0.3164122903590356 0  0.112791402386944 -0.904368809873449 0  -0.5665381108694804 -0.7154896345070572 0  -0.9173049500615473 -0.08133814122137192 0  0.9121811560431864 0.03626325804911925 0  -0.7167620814504039 0.5847320807467508 0  -0.06706516930677842 0.9174906564893126 0  0.6037362602342264 0.6841163520310896 0  0.6726959518980961 -0.6381199002810816 0  0.7787075156354877 -0.4792865777385625 0  0.8990849184913738 -0.1269663189177567 0  0.2893074720196664 -0.8597373315048338 0  -0.05685175768672932 -0.9209403361265706 0  -0.4333988412748478 -0.8176819250843602 0  -0.9034111260704363 0.0887654107471646 0  -0.6989552740101379 -0.5864931210489334 0  -0.8714028532829563 -0.2698026210420308 0  -0.8013080857299983 0.4363691176253084 0  -0.2481601609531771 0.8808356362328713 0  0.8842067712579876 0.2251467096670516 0  0.1134538428128295 0.905340201589466 0  -0.570605438204098 0.712139009878358 0  0.7112688741091725 0.5538117193112041 0  0.452525574227554 0.7897421306025125 0  -0.3414355450199018 -0.8470327978772133 0  -0.2722945687367302 -0.7795589152549504 0  -0.176576105156839 -0.8085455314322503 0  -0.2031209908764935 -0.7119330813064393 0  -0.1061557382562923 -0.7353134556475898 0  -0.1333035542007324 -0.6409639967973384 0  -0.2299184279376776 -0.6164193418897171 0  -0.1601119471595458 -0.54529184011634 0  -0.06357463522939985 -0.5701741575797087 0  -0.09032162636019739 -0.4742273366340999 0  -0.1868562855385441 -0.4493347341753485 0  -0.117046929234102 -0.3781819966449316 0  -0.02050917575693966 -0.4030602908613675 0  -0.0472350584910881 -0.3070176344655209 0  -0.1437733128306913 -0.2821416475614442 0  -0.0739610774831635 -0.2109756011171108 0  0.02257719930149374 -0.235851485704148 0  -0.004148720057926295 -0.139808989836838 0  -0.1006869803289499 -0.1149330282694977 0  -0.03087462595659208 -0.04376643140190471 0  0.0656636315897145 -0.06864240539143765 0  0.03893772765880558 0.02740016212137307 0  -0.05760052979284924 0.05227613665553106 0  0.01221182440690084 0.1234427327203318 0  0.1354759852960226 0.002524188547464334 0  -0.08432643320192985 0.148318706789379 0  -0.01451407888558151 0.2194853032252033 0  -0.1110523365139031 0.2443612772967803 0  -0.1808646908484775 0.173194680766891 0  -0.04123998220241553 0.315527873783825 0  0.05529827543983795 0.2906518996877751 0  -0.2075905941485477 0.2692372513676639 0  -0.2774029484815027 0.1980706548281711 0  0.02857237214627389 0.3866944703054201 0  0.1251106298237271 0.3618184961996656 0  -0.3041288518012371 0.2941132254553123 0  -0.373941206130737 0.2229466289036679 0  -0.3472153028010233 0.1269040582948285 0  -0.4437535604451317 0.1517800323591314 0  -0.4170276570999563 0.05573746176580362 0  0.09838472652330868 0.4578610668402722 0  0.1949229842060436 0.4329850927409744 0  0.2216488875220583 0.3369425220720634 0  0.001846468928787241 0.4827370409465461 0  0.2914612419062723 0.4081091186149362 0  0.3181871452245917 0.3120665479392379 0  0.1622018885918542 -0.09351838185489339 0  0.2320142427445476 -0.02235178586434626 0  0.2587401460177972 -0.118394356383868 0  0.3285525002221444 -0.04722776008099268 0  0.355278403500862 -0.1432703305483377 0  0.425090757710193 -0.07210373417758013 0  0.4518166609414709 -0.1681463046302946 0  0.3820043067617475 -0.2393129009891954 0  -0.5135659147205343 0.08061343582625011 0  -0.4868400114142113 -0.01542913472109753 0  -0.4006671094830494 0.3189891995317588 0  -0.3308547551262987 0.3901557961000013 0  0.5216290151741039 -0.096979708262352 0  0.4949031119391835 -0.0009371377965180921 0  0.3879994996339942 0.383233144478657 0  0.4785425641644531 -0.2641888750481178 0  0.4087302099982131 -0.3353554713601328 0  -0.5402918180845104 0.1766560063925543 0  0.1681970808903585 0.5290276634131116 0  -0.5833782689883096 0.009446839324014659 0  -0.5566523656635333 -0.08659573119040014 0  -0.4601141081252834 -0.11147170523539 0  -0.5299264623348398 -0.1826383016662359 0  0.5914413694583999 -0.0258131118722005 0  0.5647154662373796 0.07022945859759529 0  0.3612735963096737 0.4792757151845156 0  -0.427393012852807 0.415031770190663 0  -0.3575806584661602 0.4861983667766743 0  -0.4333882048501471 -0.2075142756926602 0  -0.5032005590539431 -0.2786808720836153 0  0.3121919526079304 -0.31047949733501 0  0.3389178558476052 -0.4065220676696347 0  0.5052684673828014 -0.360231445414556 0  0.618167272630094 -0.1218556823606219 0  0.4578118540444858 0.4543997410414525 0  0.4845377573653067 0.3583571703312383 0  -0.5997388165030568 -0.2538048980749383 0  -0.5726182745709099 -0.349737651792752 0  -0.476408882694728 -0.3747051396862863 0  0.242379598375754 -0.381646093720459 0  0.2691055017067961 -0.477688663991579 0  0.3656437590571927 -0.5025646379868325 0  0.2958314049388511 -0.5737312342652557 0  0.199293147626674 -0.548855260270697 0  -0.3635758506296833 -0.1363476792956745 0  0.2052883395042254 0.07369078451466132 0  -0.2610424007352268 0.4613223926703736 0  -0.2877683040726436 0.5573649633665057 0  0.4681772088477804 0.09510543263094937 0  -0.6531906232170687 -0.06171975714986294 0  0.6612537237706846 0.04535348453420714 0  0.6345278205785211 0.1413960550056769 0  -0.6799165265390616 0.03432281335059308 0  0.2260190508484043 -0.6448978305283196 0  0.4310859507295732 0.5504423117723948 0  -0.4541189162096942 0.5110743408881729 0  -0.5239312706109315 0.4399077442776883 0  -0.5458156360021287 -0.4457588689026649 0  -0.4496591618223829 -0.4707412880451375 0  0.5543501117845178 0.4295237668922745 0  0.3923696622464402 -0.5986072082673006 0  0.1294807921938694 -0.6200218618266979 0  -0.3799231786899924 -0.3995959535426268 0  -0.3204893995410594 0.03086148769718712 0  0.5750808215247509 -0.2890648491214648 0  0.4621820163455043 -0.5274406120320946 0  -0.3368499472862063 -0.232390250243194 0  0.188927791846685 -0.1895609528188325 0  0.3345476929550765 0.5753182859113447 0  -0.1912300463563641 0.5324889892380295 0  -0.2179559496650557 0.6285315599584633 0  -0.1214176919454829 0.6036555858383672 0  -0.1481435952457844 0.6996981565728593 0  -0.05160533746994912 0.6748221824573221 0  0.581076014925286 0.3334811961817142 0  0.6018067247361701 -0.3851074194357652 0  0.4869869017200988 -0.6228910692174049 0  0.1572340394148161 -0.7187357914562776 0  0.7302509579962368 0.1162932563386977 0  0.7034810132252184 0.2123235711332083 0  -0.3143635832681669 0.653279395590162 0  0.6710557319075262 -0.3140975865440377 0  -0.5194676125583334 -0.541906626672413 0  -0.4229920318077112 -0.5668006585662466 0  -0.6665840080286811 -0.3244548240554672 0  -0.6957825468412788 -0.2288428123419464 0  0.7535309802004999 0.02387228508192352 0  0.6483464994801122 0.4039107900221328 0  0.05983966168358921 -0.6916336864099627 0  0.1027548840652149 -0.5239793035500566 0  -0.2670375931113356 -0.1612236540510189 0  0.51126366033821 0.2623145996200579 0  0.2483747908044156 0.2408999514355696 0  -0.164504143066976
[...]
<PointData  Scalars="f_30"> 
<DataArray  type="Float64"  Name="f_30"  format="ascii">7.8713524034125543e-02  7.8860884862703803e-02  7.9005377689437550e-02  7.9146649028460539e-02  7.9282352337275916e-02  7.9412895267629097e-02  7.9534557943923404e-02  7.9646256348916450e-02  7.9746714143771671e-02  7.9837126022097027e-02  7.9914083365124081e-02  7.9977531890124631e-02  8.0027335860212795e-02  8.0062682815765326e-02  8.0084050448000779e-02  8.0091856554093885e-02  8.0084940912183850e-02  8.0064072777634193e-02  8.0030124968048830e-02  7.9983391355821817e-02  7.9925218366694487e-02  7.9855288299492524e-02  7.9773808947888131e-02  7.9684047102359254e-02  7.9585657673192006e-02  7.9479481352761200e-02  7.9368888936153903e-02  7.9250876730183800e-02  7.9129048800920712e-02  7.9004593986043301e-02  7.8878242530271050e-02  7.8749217079406311e-02  7.8621201436878896e-02  7.8494418736249363e-02  7.8369132005117359e-02  7.8246986535194768e-02  7.8128255934079918e-02  7.8014645476017941e-02  7.7907857460179156e-02  7.7806541801101331e-02  7.7713713094245532e-02  7.7628575407492739e-02  7.7553561897384063e-02  7.7488260078127910e-02  7.7433688165944078e-02  7.7390853978338295e-02  7.7360325410138042e-02  7.7342638681040438e-02  7.7337953642946655e-02  7.7346825480132997e-02  7.7369370410996674e-02  7.7406110254284080e-02  7.7456196779687222e-02  7.7520308235330987e-02  7.7596740687856269e-02  7.7685722751445446e-02  7.7786332726862695e-02  7.7897392094738033e-02  7.8018436312766545e-02  7.8147439183866171e-02  7.8282921535325123e-02  7.8423792321311511e-02  7.8568662337988801e-02  7.7491153688016470e-02  7.9868630446006478e-02  7.8050896109788756e-02  7.9330165804755257e-02  7.7413508475427453e-02  7.9070699624682633e-02  8.0025826886684692e-02  7.8208636573605245e-02  7.7344028073612722e-02  7.7667216613625259e-02  7.8565656039869938e-02  7.8763703652802441e-02  7.9507722876810391e-02  8.0058347606554323e-02  7.9774822307284929e-02  7.7724315938787619e-02  7.7951344749385615e-02  7.8502091503702062e-02  7.7389697714912595e-02  7.7350447080827819e-02  7.7529664023411077e-02  7.8801760878661045e-02  7.7854811045761668e-02  7.8300829606395478e-02  7.9297688329936056e-02  7.9988745189788171e-02  7.9064089107969901e-02  8.0068421204537832e-02  7.9709798718985925e-02  7.9584732386046825e-02  7.9927332406485918e-02  7.7466655521176153e-02  7.7448734731017849e-02  7.7398632053027203e-02  7.7435619689728646e-02  7.7392422710371667e-02  7.7432204464038326e-02  7.7487006245290216e-02  7.7488891157530715e-02  7.7442998259058898e-02  7.7507866523099572e-02  7.7566483880758944e-02  7.7596653744090138e-02  7.7550071062928605e-02  7.7653044280958011e-02  7.7713126648886161e-02  7.7786067037508788e-02  7.7740200538569643e-02  7.7891275749060102e-02  7.7950505953267579e-02  7.8073897544744364e-02  7.8029693109184839e-02  7.8229167442265463e-02  7.8285361212584267e-02  7.8454525821407356e-02  7.8199131092169846e-02  7.8519983540925195e-02  7.8698575686534517e-02  7.8769305025417707e-02  7.8605726975125287e-02  7.8951596104138294e-02  7.8894832388571520e-02  7.8855177963330858e-02  7.8706090127925205e-02  7.9144668337533794e-02  7.9099389083326282e-02  7.8949788301088078e-02  7.8813455488273662e-02  7.8579144511979018e-02  7.8696373462432800e-02  7.8475354885358797e-02  7.9338540188977735e-02  7.9301122959720291e-02  7.9067605259637325e-02  7.9384751506938592e-02  7.9272768588554227e-02  7.9048432296217178e-02  7.8012974744692709e-02  7.8194195494838664e-02  7.8021358358282680e-02  7.8210670162781895e-02  7.8050047183458690e-02  7.8242796201900680e-02  7.8092524398158183e-02  7.7916009930937558e-02  7.8598536571695965e-02  7.8393218872063214e-02  7.9045247197943994e-02  7.9185700770015147e-02  7.8283553022995209e-02  7.8446793716325264e-02  7.9251763004800968e-02  7.7966022425967244e-02  7.7807122810542875e-02  7.8808579819282756e-02  7.9522056352733586e-02  7.8517859766712633e-02  7.8329250225154162e-02  7.8200545674920185e-02  7.8153827338264648e-02  7.8479917945842803e-02  7.8651628499609993e-02  7.9458448324265255e-02  7.9263206191456867e-02  7.9402002874717673e-02  7.8026518206230674e-02  7.7996284320093034e-02  7.7761317119304521e-02  7.7670577407145378e-02  7.7861596411733347e-02  7.8325613938710015e-02  7.9430702708347026e-02  7.9234718405694002e-02  7.8119550407463392e-02  7.7976497583549922e-02  7.7859237973182990e-02  7.7633356966551492e-02  7.7559907759538860e-02  7.7601241930779857e-02  7.7506223658722687e-02  7.7476178100694182e-02  7.8073642219622805e-02  7.8394178189537464e-02  7.9336785879625560e-02  7.9544780031932910e-02  7.8629789577896875e-02  7.8450759319686883e-02  7.8671350033762605e-02  7.8846256125409964e-02  7.8630298156282280e-02  7.7435584976866784e-02  7.9613607625723559e-02  7.9456204102270556e-02  7.9327690494717454e-02  7.7851908713994417e-02  7.7743514489948290e-02  7.9401405884545348e-02  7.7549129930251662e-02  7.7418235903835383e-02  7.7747212473258456e-02  7.8352835413413160e-02  7.8020069766504482e-02  7.7652420366033800e-02  7.7905472484107646e-02  7.7856918839700126e-02  7.9648836426340255e-02  7.9492636644993772e-02  7.9685096266157954e-02  7.9645717871861810e-02  7.9816036287185185e-02  7.9787220618732599e-02  7.9217222995363643e-02  7.7917916766514467e-02  7.7598603937977337e-02  7.7387114647013353e-02  7.8846927954943483e-02  7.9019308853375339e-02  7.9715942285545502e-02  7.8070694919896502e-02  7.7746181130450065e-02  7.7648329415199752e-02  7.8090264311162685e-02  7.8236308493877096e-02  7.8686792684629761e-02  7.9365094020472787e-02  7.7383014366552871e-02  7.7464037976082478e-02  7.7957400275511110e-02  7.9034542053235332e-02  7.8832690098157104e-02  7.9267897119058531e-02  7.8825404082468742e-02  7.8561170559543328e-02  7.9490635577999652e-02  7.9367444782058871e-02  7.9204231606920583e-02  7.9771304852949310e-02  7.9812892857850731e-02  7.9604538991347021e-02  7.9922206212950792e-02  7.9905683091054502e-02  7.9753465671972973e-02  7.9880209029448132e-02  7.8723233926723216e-02  7.8810455633289020e-02  7.7706536127376297e-02  7.8880200209836007e-02  7.8975858812501798e-02  7.7408326833584715e-02  7.7358297341030530e-02  7.9258653855403052e-02  7.9743512098638461e-02  7.9521692071291422e-02  7.8203367243696503e-02  7.9945358410781778e-02  7.7850967657160625e-02  7.7658951486781425e-02  7.7573651085262554e-02  7.8641320624228447e-02  7.8341470728112428e-02  7.7975618003663760e-02  7.7510595029719104e-02  7.7366713223434011e-02  7.7497421646942455e-02  7.7556524776435154e-02  7.7397477640591308e-02  7.7668837413938374e-02  7.7647647291952476e-02  7.7473823635412303e-02  7.7798786872003159e-02  7.7620551842691218e-02  7.7832273670594726e-02  7.7529863767352325e-02  7.7615014024346937e-02  7.8606484982557678e-02  7.7722584180435539e-02  7.7731102823491507e-02  7.7467888864028653e-02  7.7441894070002765e-02  7.7367208037119717e-02  7.7348354487526014e-02  7.8466129527637624e-02  7.8240111451508179e-02  7.8365885228291535e-02  7.7776345881479705e-02  7.8189371804153918e-02  7.8231979242951666e-02  7.7753452993471139e-02  7.7954890831696710e-02  7.8855110434648837e-02  7.9038914145145828e-02  7.8143395619875808e-02  7.8036118509647132e-02  7.7720445932666207e-02  7.7860384347673881e-02  7.8509930996172428e-02  7.8539427328640554e-02  7.8362297791598895e-02  7.7874896003064645e-02  7.9132886848718470e-02  7.8647218849264136e-02  7.8278678945623403e-02  7.7877335628853864e-02  7.8919052093906900e-02  7.9102926523938549e-02  7.8392885886106586e-02  7.8141410348278373e-02  7.9587308943506754e-02  7.9013893761248441e-02  7.9488145312712977e-02  7.8265302999293226e-02  7.9831266864064443e-02  7.8412482774992923e-02  7.9574357217726530e-02  7.8416861476010263e-02  7.8145148652952703e-02  7.9022636894769738e-02  7.9602672300241206e-02  7.9683731471669600e-02  7.8713069193390037e-02  7.7859588868496185e-02  7.7534379517430349e-02  7.8616870614491408e-02  7.9738127451547000e-02  7.9202040733510073e-02  7.8397209705802870e-02  7.8905329299097673e-02  7.9437463143136877e-02  7.8829050037084181e-02  7.9089718266782835e-02  7.9136445562419319e-02  7.9560512454095206e-02  7.9192905609432263e-02  7.9718628720811785e-02  7.8612580624583511e-02  7.8838044345333563e-02  7.9849873345739592e-02  7.9995453237065209e-02  7.9029392467337034e-02  7.9167702047466162e-02  7.7763393442786835e-02  7.7419773734846584e-02  7.7560915192312382e-02  7.7643136856438796e-02  7.9398094540819669e-02  7.9944286092107297e-02  7.8387327213119862e-02  7.9841237985653388e-02  7.7961739352338910e-02  7.8835983938968165e-02  7.7585776991757782e-02  7.8140289613684161e-02  7.8624524716518096e-02  8.0000267801880687e-02  7.9902260353180404e-02  7.8991622693845631e-02  8.0007979837186508e-02  7.8491189286157906e-02  7.9658514508462591e-02  7.9853772495258754e-02  7.9784896639626318e-02  7.7570093959085790e-02  7.7663550567393436e-02  7.7832893220779256e-02  7.8945454973256626e-02  7.8348198190797400e-02  7.7374702566172904e-02  7.8927075064645302e-02  7.9183162956818709e-02  7.9461365368959466e-02  7.9205519410170677e-02  7.8166885771526182e-02  8.0031153652177500e-02  7.9939411591798279e-02  7.9609889615444074e-02  8.0059729062656765e-02  7.8430533959507054e-02  7.9984100761563121e-02  7.8078068049695998e-02  7.9691372617940195e-02  8.0070756064997015e-02  7.7365806640877985e-02  7.9327469010533114e-02  7.8071425181754625e-02  7.7432838594463788e-02  7.9610258141894943e-02  7.7513182652115903e-02  7.9459517987952893e-02  7.7359056009994279e-02  7.9916075657371341e-02  7.7758858655562188e-02  7.9506313793937786e-02  8.0001309966362330e-02  7.8679608717463143e-02  7.7958375811219685e-02  7.7340843041193721e-02  7.8269988250020753e-02  7.7886908909076943e-02  7.9417660238315355e-02  7.8999854726140448e-02  7.7771427677474123e-02  7.8705727898653419e-02  7.9849895426498493e-02  7.7632991264719731e-02  7.9697373653841899e-02  7.7590620021043125e-02  7.8637419747089821e-02  7.7558020032801517e-02  </DataArray> 
</PointData> 
</Piece>
</UnstructuredGrid>
</VTKFile>