<?xml version="1.0"?>
<VTKFile type="UnstructuredGrid"  version="0.1"  >
<UnstructuredGrid>
<Piece  NumberOfPoints="411" NumberOfCells="757">
<Points>
<DataArray  type="Float64"  NumberOfComponents="3"  format="ascii">1 0 0  0.9950307753424469 0.09956784682521302 0  0.9801724877581199 0.1981461436466988 0  0.9555728055899844 0.2947551750468275 0  0.9214762115412887 0.3884347970554571 0  0.878221572847902 0.4782539795804704 0  0.8262387735293077 0.5633200592174801 0  0.7660444420435373 0.6427876109681997 0  0.6982368166884868 0.7158668506228854 0  0.6234898000711532 0.7818314838935776 0  0.5425462616716372 0.8400259245678857 0  0.4562106547492349 0.8898718101464247 0  0.3653410213606504 0.9308737498238721 0  0.2708404647247718 0.9626242479117538 0  0.1736481738855714 0.9848077536789637 0  0.0747300894292086 0.9972037974927204 0  -0.02493069619005662 0.9996891818897907 0  -0.1243437093935069 0.9922392060054184 0  -0.2225209388936208 0.9749279110549156 0  -0.3184866553565292 0.9479273444519951 0  -0.4112871082861543 0.9115058499854036 0  -0.5000000051436531 0.8660254008147491 0  -0.5837436773981763 0.8119380020036344 0  -0.6616858425795832 0.7497811985704543 0  -0.7330518765357205 0.6801727326991717 0  -0.7971325115562669 0.6038044046046684 0  -0.8532908855881599 0.5214351969057841 0  -0.9009688713163121 0.4338837320285363 0  -0.9396926235768162 0.3420201356577126 0  -0.9690772883116017 0.2467573895117082 0  -0.988830827546393 0.149042257410158 0  -0.9987569216736767 0.04984587654883038 0  -0.9987569207643853 -0.04984589476821013 0  -0.9888308249189958 -0.1490422748417993 0  -0.9690772841339318 -0.2467574059184503 0  -0.9396926179877757 -0.342020151013475 0  -0.9009688645070715 -0.4338837461680701 0  -0.8532908777076588 -0.5214352098016525 0  -0.7971325028545885 -0.6038044160924789 0  -0.733051867136826 -0.6801727428287707 0  -0.6616858327031787 -0.7497812072864329 0  -0.5837436670143792 -0.8119380094690761 0  -0.4999999948144361 -0.8660254067783253 0  -0.4112870980061251 -0.9115058546239294 0  -0.3184866448956037 -0.9479273479666792 0  -0.2225209288760807 -0.9749279133413538 0  -0.1243436996694762 -0.9922392072239975 0  -0.02493068706666702 -0.9996891821173138 0  0.07473009780364996 -0.9972037968651427 0  0.173648181732695 -0.984807752295304 0  0.2708404716990337 -0.9626242459495007 0  0.3653410275156022 -0.9308737474082316 0  0.4562106603153321 -0.8898718072928531 0  0.5425462662721159 -0.8400259215965816 0  0.6234898039414718 -0.7818314808071015 0  0.6982368197427202 -0.7158668476438702 0  0.766044444337473 -0.6427876082343936 0  0.8262387753254992 -0.5633200565829511 0  0.8782215740169719 -0.4782539774336984 0  0.9214762123114304 -0.3884347952284652 0  0.9555728060786477 -0.2947551734626198 0  0.9801724879568812 -0.1981461426634838 0  0.9950307754096857 -0.09956784615326231 0  0.4589642888772116 -0.7886666505082998 0  -0.4146821997961077 0.8062642543788969 0  -0.8028358043309298 -0.4537385104606888 0  0.8233258125387509 0.3935956744220127 0  -0.2471206113548315 -0.8783188826887464 0  -0.8715793672955142 0.2802819854274809 0  0.2905940051230275 0.8649091161708946 0  0.86399466449859 -0.3164122903590356 0  0.112791402386944 -0.904368809873449 0  -0.5665381108694804 -0.7154896345070572 0  -0.9173049500615473 -0.08133814122137192 0  0.9121811560431864 0.03626325804911925 0  -0.7167620814504039 0.5847320807467508 0  -0.06706516930677842 0.9174906564893126 0  0.6037362602342264 0.6841163520310896 0  0.6726959518980961 -0.6381199002810816 0  0.7787075156354877 -0.4792865777385625 0  0.8990849184913738 -0.1269663189177567 0  0.2893074720196664 -0.8597373315048338 0  -0.05685175768672932 -0.9209403361265706 0  -0.4333988412748478 -0.8176819250843602 0  -0.9034111260704363 0.0887654107471646 0  -0.6989552740101379 -0.5864931210489334 0  -0.8714028532829563 -0.2698026210420308 0  -0.8013080857299983 0.4363691176253084 0  -0.2481601609531771 0.8808356362328713 0  0.8842067712579876 0.2251467096670516 0  0.1134538428128295 0.905340201589466 0  -0.570605438204098 0.712139009878358 0  0.7112688741091725 0.5538117193112041 0  0.452525574227554 0.7897421306025125 0  -0.3414355450199018 -0.8470327978772133 0  -0.2722945687367302 -0.7795589152549504 0  -0.176576105156839 -0.8085455314322503 0  -0.2031209908764935 -0.7119330813064393 0  -0.1061557382562923 -0.7353134556475898 0  -0.1333035542007324 -0.6409639967973384 0  -0.2299184279376776 -0.6164193418897171 0  -0.1601119471595458 -0.54529184011634 0  -0.06357463522939985 -0.5701741575797087 0  -0.09032162636019739 -0.4742273366340999 0  -0.1868562855385441 -0.4493347341753485 0  -0.117046929234102 -0.3781819966449316 0  -0.02050917575693966 -0.4030602908613675 0  -0.0472350584910881 -0.3070176344655209 0  -0.1437733128306913 -0.2821416475614442 0  -0.0739610774831635 -0.2109756011171108 0  0.02257719930149374 -0.235851485704148 0  -0.004148720057926295 -0.139808989836838 0  -0.1006869803289499 -0.1149330282694977 0  -0.03087462595659208 -0.04376643140190471 0  0.0656636315897145 -0.06864240539143765 0  0.03893772765880558 0.02740016212137307 0  -0.05760052979284924 0.05227613665553106 0  0.01221182440690084 0.1234427327203318 0  0.1354759852960226 0.002524188547464334 0  -0.08432643320192985 0.148318706789379 0  -0.01451407888558151 0.2194853032252033 0  -0.1110523365139031 0.2443612772967803 0  -0.1808646908484775 0.173194680766891 0  -0.04123998220241553 0.315527873783825 0  0.05529827543983795 0.2906518996877751 0  -0.2075905941485477 0.2692372513676639 0  -0.2774029484815027 0.1980706548281711 0  0.02857237214627389 0.3866944703054201 0  0.1251106298237271 0.3618184961996656 0  -0.3041288518012371 0.2941132254553123 0  -0.373941206130737 0.2229466289036679 0  -0.3472153028010233 0.1269040582948285 0  -0.4437535604451317 0.1517800323591314 0  -0.4170276570999563 0.05573746176580362 0  0.09838472652330868 0.4578610668402722 0  0.1949229842060436 0.4329850927409744 0  0.2216488875220583 0.3369425220720634 0  0.001846468928787241 0.4827370409465461 0  0.2914612419062723 0.4081091186149362 0  0.3181871452245917 0.3120665479392379 0  0.1622018885918542 -0.09351838185489339 0  0.2320142427445476 -0.02235178586434626 0  0.2587401460177972 -0.118394356383868 0  0.3285525002221444 -0.04722776008099268 0  0.355278403500862 -0.1432703305483377 0  0.425090757710193 -0.07210373417758013 0  0.4518166609414709 -0.1681463046302946 0  0.3820043067617475 -0.2393129009891954 0  -0.5135659147205343 0.08061343582625011 0  -0.4868400114142113 -0.01542913472109753 0  -0.4006671094830494 0.3189891995317588 0  -0.3308547551262987 0.3901557961000013 0  0.5216290151741039 -0.096979708262352 0  0.4949031119391835 -0.0009371377965180921 0  0.3879994996339942 0.383233144478657 0  0.4785425641644531 -0.2641888750481178 0  0.4087302099982131 -0.3353554713601328 0  -0.5402918180845104 0.1766560063925543 0  0.1681970808903585 0.5290276634131116 0  -0.5833782689883096 0.009446839324014659 0  -0.5566523656635333 -0.08659573119040014 0  -0.4601141081252834 -0.11147170523539 0  -0.5299264623348398 -0.1826383016662359 0  0.5914413694583999 -0.0258131118722005 0  0.5647154662373796 0.07022945859759529 0  0.3612735963096737 0.4792757151845156 0  -0.427393012852807 0.415031770190663 0  -0.3575806584661602 0.4861983667766743 0  -0.4333882048501471 -0.2075142756926602 0  -0.5032005590539431 -0.2786808720836153 0  0.3121919526079304 -0.31047949733501 0  0.3389178558476052 -0.4065220676696347 0  0.5052684673828014 -0.360231445414556 0  0.618167272630094 -0.1218556823606219 0  0.4578118540444858 0.4543997410414525 0  0.4845377573653067 0.3583571703312383 0  -0.5997388165030568 -0.2538048980749383 0  -0.5726182745709099 -0.349737651792752 0  -0.476408882694728 -0.3747051396862863 0  0.242379598375754 -0.381646093720459 0  0.2691055017067961 -0.477688663991579 0  0.3656437590571927 -0.5025646379868325 0  0.2958314049388511 -0.5737312342652557 0  0.199293147626674 -0.548855260270697 0  -0.3635758506296833 -0.1363476792956745 0  0.2052883395042254 0.07369078451466132 0  -0.2610424007352268 0.4613223926703736 0  -0.2877683040726436 0.5573649633665057 0  0.4681772088477804 0.09510543263094937 0  -0.6531906232170687 -0.06171975714986294 0  0.6612537237706846 0.04535348453420714 0  0.6345278205785211 0.1413960550056769 0  -0.6799165265390616 0.03432281335059308 0  0.2260190508484043 -0.6448978305283196 0  0.4310859507295732 0.5504423117723948 0  -0.4541189162096942 0.5110743408881729 0  -0.5239312706109315 0.4399077442776883 0  -0.5458156360021287 -0.4457588689026649 0  -0.4496591618223829 -0.4707412880451375 0  0.5543501117845178 0.4295237668922745 0  0.3923696622464402 -0.5986072082673006 0  0.1294807921938694 -0.6200218618266979 0  -0.3799231786899924 -0.3995959535426268 0  -0.3204893995410594 0.03086148769718712 0  0.5750808215247509 -0.2890648491214648 0  0.4621820163455043 -0.5274406120320946 0  -0.3368499472862063 -0.232390250243194 0  0.188927791846685 -0.1895609528188325 0  0.3345476929550765 0.5753182859113447 0  -0.1912300463563641 0.5324889892380295 0  -0.2179559496650557 0.6285315599584633 0  -0.1214176919454829 0.6036555858383672 0  -0.1481435952457844 0.6996981565728593 0  -0.05160533746994912 0.6748221824573221 0  0.581076014925286 0.3334811961817142 0  0.6018067247361701 -0.3851074194357652 0  0.4869869017200988 -0.6228910692174049 0  0.1572340394148161 -0.7187357914562776 0  0.7302509579962368 0.1162932563386977 0  0.7034810132252184 0.2123235711332083 0  -0.3143635832681669 0.653279395590162 0  0.6710557319075262 -0.3140975865440377 0  -0.5194676125583334 -0.541906626672413 0  -0.4229920318077112 -0.5668006585662466 0  -0.6665840080286811 -0.3244548240554672 0  -0.6957825468412788 -0.2288428123419464 0  0.7535309802004999 0.02387228508192352 0  0.6483464994801122 0.4039107900221328 0  0.05983966168358921 -0.6916336864099627 0  0.1027548840652149 -0.5239793035500566 0  -0.2670375931113356 -0.1612236540510189 0  0.51126366033821 0.2623145996200579 0  0.2483747908044156 0.2408999514355696 0  -0.164504143066976
[...]
<PointData  Scalars="f_30"> 
<DataArray  type="Float64"  Name="f_30"  format="ascii">7.9492111929111139e-02  7.9739886943334351e-02  7.9978334212009089e-02  8.0210796360642170e-02  8.0433069919760986e-02  8.0646602393692188e-02  8.0844081471017681e-02  8.1019116465776281e-02  8.1175299787156069e-02  8.1314862936812102e-02  8.1428218566690969e-02  8.1518734513820149e-02  8.1586040568943169e-02  8.1628851927422447e-02  8.1649141960067645e-02  8.1648315249928771e-02  8.1623690668119586e-02  8.1577201335604366e-02  8.1511463106171994e-02  8.1426927895042508e-02  8.1326794741201511e-02  8.1209752298245702e-02  8.1075726557521932e-02  8.0931819725988785e-02  8.0777130000504099e-02  8.0611904366038420e-02  8.0446205095893078e-02  8.0269213153625923e-02  8.0086643462930956e-02  7.9905204365643828e-02  7.9724064806559664e-02  7.9535992013545179e-02  7.9349267571893325e-02  7.9169503288706269e-02  7.8990492141095756e-02  7.8815557762064212e-02  7.8642863317418404e-02  7.8476015214276454e-02  7.8321986044000882e-02  7.8172459078766063e-02  7.8033162252300795e-02  7.7901991172301899e-02  7.7782311713076854e-02  7.7678527884501788e-02  7.7587178618802710e-02  7.7509969697364248e-02  7.7448278819044050e-02  7.7403442149034690e-02  7.7381639510821151e-02  7.7378556428395626e-02  7.7397059968952769e-02  7.7437615696443238e-02  7.7500005060056873e-02  7.7586651690052744e-02  7.7694580624182608e-02  7.7828135155512068e-02  7.7982814456821037e-02  7.8157091393706149e-02  7.8350977227559654e-02  7.8559521171348845e-02  7.8780897718995754e-02  7.9014550049686952e-02  7.9252456006989019e-02  7.7510853410257707e-02  8.1190825681926107e-02  7.8498399846203173e-02  8.0472572349044869e-02  7.7509404954239788e-02  7.9965206208135131e-02  8.1538570494141011e-02  7.8627091557049500e-02  7.7344548050222672e-02  7.7923365966702157e-02  7.9238062180868790e-02  7.9539454896172937e-02  8.0628705952132701e-02  8.1542086736490341e-02  8.1179146000706442e-02  7.7861355978214822e-02  7.8206522869160161e-02  7.9103649592518005e-02  7.7379135282327080e-02  7.7391791683479177e-02  7.7715921195633808e-02  7.9570349615671235e-02  7.8205511537059236e-02  7.8851078488472948e-02  8.0302859022681736e-02  8.1404608721662872e-02  8.0036777477738366e-02  8.1579066705667530e-02  8.0933886712288766e-02  8.0872934739157687e-02  8.1401215815031958e-02  7.7602190247776690e-02  7.7446395041635016e-02  7.7360073096602505e-02  7.7223673336523080e-02  7.7149458699560178e-02  7.6950320726781998e-02  7.7057891952759014e-02  7.6733078130882912e-02  7.6669055463789798e-02  7.6422670948713592e-02  7.6538970950270638e-02  7.6226066951799801e-02  7.6172155209115286e-02  7.6000823398659614e-02  7.6121254216733103e-02  7.5946243012926323e-02  7.5904033824848671e-02  7.5920468831998489e-02  7.6038440559303269e-02  7.6097264914368981e-02  7.6065756126029574e-02  7.6332495386687502e-02  7.6441598234358463e-02  7.6762711129773037e-02  7.6386215993351048e-02  7.6942727600022298e-02  7.7336536548215554e-02  7.7572529535537463e-02  7.7265198832124696e-02  7.8017838310274631e-02  7.7866375011895014e-02  7.7928546727425593e-02  7.7700483885990893e-02  7.8570738408143478e-02  7.8493227179238512e-02  7.8369625370395712e-02  7.8206381677427772e-02  7.7609355689165119e-02  7.8158719090846970e-02  7.7644446697988062e-02  7.9187698286155850e-02  7.9166495579152771e-02  7.8529066196679848e-02  7.9302200663123129e-02  7.9235292567023302e-02  7.8667392569519171e-02  7.6194966613820345e-02  7.6590287512343716e-02  7.6464290806328675e-02  7.6916199580884345e-02  7.6838661924437404e-02  7.7323013359373055e-02  7.7272935953292057e-02  7.6875462306458059e-02  7.8210379455030649e-02  7.7780819404711848e-02  7.8850973978969882e-02  7.9067138392736297e-02  7.7762436605618698e-02  7.7893325795916082e-02  7.9377953286945566e-02  7.7311321601593139e-02  7.6996085440071194e-02  7.8705355305324007e-02  7.9816769964907525e-02  7.8333600408444448e-02  7.7982905311889089e-02  7.7444268515102749e-02  7.7716039584211555e-02  7.8305948232554379e-02  7.8503969008916472e-02  7.9905627813462582e-02  7.9492848364048019e-02  7.9738615881060543e-02  7.7216042355797113e-02  7.7541029068584066e-02  7.6596652634912610e-02  7.6790090942734243e-02  7.7407106635336453e-02  7.8184773275747091e-02  8.0025608815694829e-02  7.9567649967330289e-02  7.7995710078460151e-02  7.7852400595864138e-02  7.7453566300450749e-02  7.6449095555484667e-02  7.6698346190860175e-02  7.7013896449869224e-02  7.6958255999346123e-02  7.6712238704937513e-02  7.6926955898664509e-02  7.6867192021922034e-02  7.9376209247924573e-02  8.0048914098315244e-02  7.8124583226553176e-02  7.8493015824298393e-02  7.8857989592368880e-02  7.9104402758147063e-02  7.8833909444766898e-02  7.6983443840258084e-02  8.0485276624424409e-02  8.0080524773204376e-02  7.9881714433273673e-02  7.7775119232002865e-02  7.7439179428778870e-02  8.0161901731350516e-02  7.7227123317137089e-02  7.6811368458236814e-02  7.7078218220634528e-02  7.7103476752725761e-02  7.7734677122430804e-02  7.7337345323338164e-02  7.6756383810305057e-02  7.6158686222610072e-02  8.0425249109856434e-02  7.9759417665848917e-02  8.0400919578496113e-02  8.0186984351785826e-02  8.0766237930539275e-02  8.0620522861474767e-02  7.9770849914043818e-02  7.7785294612997755e-02  7.7479116412533480e-02  7.7074088203257771e-02  7.9369467338716915e-02  7.9641329557417442e-02  8.0615967726163446e-02  7.8099224633964640e-02  7.7746884607382841e-02  7.7474857690544324e-02  7.8229692115652616e-02  7.8416923747436432e-02  7.9140322984105643e-02  8.0274931439564143e-02  7.6967452660006069e-02  7.6523163065974009e-02  7.6479347504023590e-02  7.9145483762065483e-02  7.7952570429939624e-02  7.9036368032788323e-02  7.8167390937748507e-02  7.8938175604679583e-02  8.0353505940332554e-02  8.0174768667564594e-02  7.9735706110458687e-02  8.0889069220568530e-02  8.0891844281808109e-02  8.0536586600249635e-02  8.1084032880881368e-02  8.1010424175552376e-02  8.0501112851720596e-02  8.0946703745326254e-02  7.9240234237375112e-02  7.9209707441717195e-02  7.7616213089892971e-02  7.9552025563672829e-02  7.9568496841887548e-02  7.7206706232641406e-02  7.7197655911250579e-02  8.0069212271959539e-02  8.0968178067239868e-02  8.0600829354179879e-02  7.8581122476533607e-02  8.1216407159135778e-02  7.8032380564369383e-02  7.7749857699936739e-02  7.7530720757230692e-02  7.9258180850933654e-02  7.8775022160388286e-02  7.8118845281744342e-02  7.7395446351068084e-02  7.7141975004353713e-02  7.7345470086525828e-02  7.6892100322557513e-02  7.6921404886500525e-02  7.6409100098695379e-02  7.6763608068883091e-02  7.6419967317726920e-02  7.6380113267534661e-02  7.6024475888239657e-02  7.7835285600208123e-02  7.6245528862356443e-02  7.6182053193765850e-02  7.7476436712911878e-02  7.6013282157037995e-02  7.6255025839604307e-02  7.7188062901286089e-02  7.7356197087531497e-02  7.7270670715216538e-02  7.7299107544547302e-02  7.7109953471279497e-02  7.6638544139672846e-02  7.6708266370050140e-02  7.7521794669224389e-02  7.8123043773627734e-02  7.8440903253662042e-02  7.7971011103385765e-02  7.8282506385094305e-02  7.7845876838790809e-02  7.8884172439420211e-02  7.6720952064796288e-02  7.6312780118884066e-02  7.7162461647206373e-02  7.5964474880205773e-02  7.8674103332571854e-02  7.8995341691289772e-02  7.8544601202817046e-02  7.7097794510309556e-02  7.9322673792985382e-02  7.7241568267922542e-02  7.8208992403992664e-02  7.6475590577721006e-02  7.8732970305175481e-02  7.8650592451083245e-02  7.8650342538650581e-02  7.7717314720426964e-02  8.0330497974309800e-02  7.9228362190024298e-02  7.9829469117410512e-02  7.7226003764464091e-02  8.0900548540037184e-02  7.6738803644364986e-02  8.0556525551615743e-02  7.7484141106912222e-02  7.6292959632066157e-02  7.8288135748331572e-02  8.0003508537824466e-02  8.0402471319119234e-02  7.8748364059175138e-02  7.6142679861884915e-02  7.6430220460441456e-02  7.7292251798600858e-02  8.0818325822682432e-02  7.8757810084881322e-02  7.7127235836407404e-02  7.9192995825126747e-02  7.9500045109184625e-02  7.8458517060752520e-02  7.9644717920520400e-02  7.9955202514932947e-02  7.9875411476890479e-02  7.9942829917387159e-02  8.0426849177532622e-02  7.7766848200126887e-02  7.8785498673287865e-02  8.0909945710279957e-02  8.1368241830770419e-02  7.9409197329364745e-02  8.0097528491049091e-02  7.6708416340516561e-02  7.6699357548037236e-02  7.7235533644385054e-02  7.7134429016778430e-02  8.0389555378889394e-02  8.1281969833068998e-02  7.8803740433885744e-02  8.1033995118419744e-02  7.8101978192665442e-02  7.9549894359188383e-02  7.7731388849435284e-02  7.8411534965898047e-02  7.9265140497848427e-02  8.1340227923291680e-02  8.1245920776152919e-02  7.9789769705924329e-02  8.1361544184764933e-02  7.9009718607065613e-02  8.0906496844531772e-02  8.1285221579430578e-02  8.1036176348423306e-02  7.7581081396665350e-02  7.7693363361662673e-02  7.8024187193866099e-02  7.9778050333553827e-02  7.8855192025105811e-02  7.7435563309459152e-02  7.9808364240044505e-02  8.0142021266250210e-02  8.0692137649232748e-02  8.0280129337520809e-02  7.8656568044943143e-02  8.1486816150704841e-02  8.1322082007771079e-02  8.0779916843030486e-02  8.1590055212768381e-02  7.9036266211109749e-02  8.1481416239582258e-02  7.8415965782679592e-02  8.1061440775729632e-02  8.1573271179570445e-02  7.7306392776696403e-02  8.0353437891257762e-02  7.8411075479435335e-02  7.7444327872412955e-02  8.0684825018914733e-02  7.7570870351535301e-02  8.0583768602645225e-02  7.7362611390375591e-02  8.1198632988574451e-02  7.8075047897293859e-02  8.0530305049506812e-02  8.1362460002766215e-02  7.9411680393170009e-02  7.8373886165835668e-02  7.7373142770342865e-02  7.8649731805278525e-02  7.8035821923804025e-02  8.0500733261610141e-02  7.9761900329825414e-02  7.7851267313073999e-02  7.9334762886144855e-02  8.1184179688978536e-02  7.7729341100559651e-02  8.0829644326409683e-02  7.7822731870204220e-02  7.9349057906515544e-02  7.7625431966505565e-02  </DataArray> 
</PointData> 
</Piece>
</UnstructuredGrid>
</VTKFile>