<?xml version="1.0"?>
<VTKFile type="UnstructuredGrid"  version="0.1"  >
<UnstructuredGrid>
<Piece  NumberOfPoints="411" NumberOfCells="757">
<Points>
<DataArray  type="Float64"  NumberOfComponents="3"  format="ascii">1 0 0  0.9950307753424469 0.09956784682521302 0  0.9801724877581199 0.1981461436466988 0  0.9555728055899844 0.2947551750468275 0  0.9214762115412887 0.3884347970554571 0  0.878221572847902 0.4782539795804704 0  0.8262387735293077 0.5633200592174801 0  0.7660444420435373 0.6427876109681997 0  0.6982368166884868 0.7158668506228854 0  0.6234898000711532 0.7818314838935776 0  0.5425462616716372 0.8400259245678857 0  0.4562106547492349 0.8898718101464247 0  0.3653410213606504 0.9308737498238721 0  0.2708404647247718 0.9626242479117538 0  0.1736481738855714 0.9848077536789637 0  0.0747300894292086 0.9972037974927204 0  -0.02493069619005662 0.9996891818897907 0  -0.1243437093935069 0.9922392060054184 0  -0.2225209388936208 0.9749279110549156 0  -0.3184866553565292 0.9479273444519951 0  -0.4112871082861543 0.9115058499854036 0  -0.5000000051436531 0.8660254008147491 0  -0.5837436773981763 0.8119380020036344 0  -0.6616858425795832 0.7497811985704543 0  -0.7330518765357205 0.6801727326991717 0  -0.7971325115562669 0.6038044046046684 0  -0.8532908855881599 0.5214351969057841 0  -0.9009688713163121 0.4338837320285363 0  -0.9396926235768162 0.3420201356577126 0  -0.9690772883116017 0.2467573895117082 0  -0.988830827546393 0.149042257410158 0  -0.9987569216736767 0.04984587654883038 0  -0.9987569207643853 -0.04984589476821013 0  -0.9888308249189958 -0.1490422748417993 0  -0.9690772841339318 -0.2467574059184503 0  -0.9396926179877757 -0.342020151013475 0  -0.9009688645070715 -0.4338837461680701 0  -0.8532908777076588 -0.5214352098016525 0  -0.7971325028545885 -0.6038044160924789 0  -0.733051867136826 -0.6801727428287707 0  -0.6616858327031787 -0.7497812072864329 0  -0.5837436670143792 -0.8119380094690761 0  -0.4999999948144361 -0.8660254067783253 0  -0.4112870980061251 -0.9115058546239294 0  -0.3184866448956037 -0.9479273479666792 0  -0.2225209288760807 -0.9749279133413538 0  -0.1243436996694762 -0.9922392072239975 0  -0.02493068706666702 -0.9996891821173138 0  0.07473009780364996 -0.9972037968651427 0  0.173648181732695 -0.984807752295304 0  0.2708404716990337 -0.9626242459495007 0  0.3653410275156022 -0.9308737474082316 0  0.4562106603153321 -0.8898718072928531 0  0.5425462662721159 -0.8400259215965816 0  0.6234898039414718 -0.7818314808071015 0  0.6982368197427202 -0.7158668476438702 0  0.766044444337473 -0.6427876082343936 0  0.8262387753254992 -0.5633200565829511 0  0.8782215740169719 -0.4782539774336984 0  0.9214762123114304 -0.3884347952284652 0  0.9555728060786477 -0.2947551734626198 0  0.9801724879568812 -0.1981461426634838 0  0.9950307754096857 -0.09956784615326231 0  0.4589642888772116 -0.7886666505082998 0  -0.4146821997961077 0.8062642543788969 0  -0.8028358043309298 -0.4537385104606888 0  0.8233258125387509 0.3935956744220127 0  -0.2471206113548315 -0.8783188826887464 0  -0.8715793672955142 0.2802819854274809 0  0.2905940051230275 0.8649091161708946 0  0.86399466449859 -0.3164122903590356 0  0.112791402386944 -0.904368809873449 0  -0.5665381108694804 -0.7154896345070572 0  -0.9173049500615473 -0.08133814122137192 0  0.9121811560431864 0.03626325804911925 0  -0.7167620814504039 0.5847320807467508 0  -0.06706516930677842 0.9174906564893126 0  0.6037362602342264 0.6841163520310896 0  0.6726959518980961 -0.6381199002810816 0  0.7787075156354877 -0.4792865777385625 0  0.8990849184913738 -0.1269663189177567 0  0.2893074720196664 -0.8597373315048338 0  -0.05685175768672932 -0.9209403361265706 0  -0.4333988412748478 -0.8176819250843602 0  -0.9034111260704363 0.0887654107471646 0  -0.6989552740101379 -0.5864931210489334 0  -0.8714028532829563 -0.2698026210420308 0  -0.8013080857299983 0.4363691176253084 0  -0.2481601609531771 0.8808356362328713 0  0.8842067712579876 0.2251467096670516 0  0.1134538428128295 0.905340201589466 0  -0.570605438204098 0.712139009878358 0  0.7112688741091725 0.5538117193112041 0  0.452525574227554 0.7897421306025125 0  -0.3414355450199018 -0.8470327978772133 0  -0.2722945687367302 -0.7795589152549504 0  -0.176576105156839 -0.8085455314322503 0  -0.2031209908764935 -0.7119330813064393 0  -0.1061557382562923 -0.7353134556475898 0  -0.1333035542007324 -0.6409639967973384 0  -0.2299184279376776 -0.6164193418897171 0  -0.1601119471595458 -0.54529184011634 0  -0.06357463522939985 -0.5701741575797087 0  -0.09032162636019739 -0.4742273366340999 0  -0.1868562855385441 -0.4493347341753485 0  -0.117046929234102 -0.3781819966449316 0  -0.02050917575693966 -0.4030602908613675 0  -0.0472350584910881 -0.3070176344655209 0  -0.1437733128306913 -0.2821416475614442 0  -0.0739610774831635 -0.2109756011171108 0  0.02257719930149374 -0.235851485704148 0  -0.004148720057926295 -0.139808989836838 0  -0.1006869803289499 -0.1149330282694977 0  -0.03087462595659208 -0.04376643140190471 0  0.0656636315897145 -0.06864240539143765 0  0.03893772765880558 0.02740016212137307 0  -0.05760052979284924 0.05227613665553106 0  0.01221182440690084 0.1234427327203318 0  0.1354759852960226 0.002524188547464334 0  -0.08432643320192985 0.148318706789379 0  -0.01451407888558151 0.2194853032252033 0  -0.1110523365139031 0.2443612772967803 0  -0.1808646908484775 0.173194680766891 0  -0.04123998220241553 0.315527873783825 0  0.05529827543983795 0.2906518996877751 0  -0.2075905941485477 0.2692372513676639 0  -0.2774029484815027 0.1980706548281711 0  0.02857237214627389 0.3866944703054201 0  0.1251106298237271 0.3618184961996656 0  -0.3041288518012371 0.2941132254553123 0  -0.373941206130737 0.2229466289036679 0  -0.3472153028010233 0.1269040582948285 0  -0.4437535604451317 0.1517800323591314 0  -0.4170276570999563 0.05573746176580362 0  0.09838472652330868 0.4578610668402722 0  0.1949229842060436 0.4329850927409744 0  0.2216488875220583 0.3369425220720634 0  0.001846468928787241 0.4827370409465461 0  0.2914612419062723 0.4081091186149362 0  0.3181871452245917 0.3120665479392379 0  0.1622018885918542 -0.09351838185489339 0  0.2320142427445476 -0.02235178586434626 0  0.2587401460177972 -0.118394356383868 0  0.3285525002221444 -0.04722776008099268 0  0.355278403500862 -0.1432703305483377 0  0.425090757710193 -0.07210373417758013 0  0.4518166609414709 -0.1681463046302946 0  0.3820043067617475 -0.2393129009891954 0  -0.5135659147205343 0.08061343582625011 0  -0.4868400114142113 -0.01542913472109753 0  -0.4006671094830494 0.3189891995317588 0  -0.3308547551262987 0.3901557961000013 0  0.5216290151741039 -0.096979708262352 0  0.4949031119391835 -0.0009371377965180921 0  0.3879994996339942 0.383233144478657 0  0.4785425641644531 -0.2641888750481178 0  0.4087302099982131 -0.3353554713601328 0  -0.5402918180845104 0.1766560063925543 0  0.1681970808903585 0.5290276634131116 0  -0.5833782689883096 0.009446839324014659 0  -0.5566523656635333 -0.08659573119040014 0  -0.4601141081252834 -0.11147170523539 0  -0.5299264623348398 -0.1826383016662359 0  0.5914413694583999 -0.0258131118722005 0  0.5647154662373796 0.07022945859759529 0  0.3612735963096737 0.4792757151845156 0  -0.427393012852807 0.415031770190663 0  -0.3575806584661602 0.4861983667766743 0  -0.4333882048501471 -0.2075142756926602 0  -0.5032005590539431 -0.2786808720836153 0  0.3121919526079304 -0.31047949733501 0  0.3389178558476052 -0.4065220676696347 0  0.5052684673828014 -0.360231445414556 0  0.618167272630094 -0.1218556823606219 0  0.4578118540444858 0.4543997410414525 0  0.4845377573653067 0.3583571703312383 0  -0.5997388165030568 -0.2538048980749383 0  -0.5726182745709099 -0.349737651792752 0  -0.476408882694728 -0.3747051396862863 0  0.242379598375754 -0.381646093720459 0  0.2691055017067961 -0.477688663991579 0  0.3656437590571927 -0.5025646379868325 0  0.2958314049388511 -0.5737312342652557 0  0.199293147626674 -0.548855260270697 0  -0.3635758506296833 -0.1363476792956745 0  0.2052883395042254 0.07369078451466132 0  -0.2610424007352268 0.4613223926703736 0  -0.2877683040726436 0.5573649633665057 0  0.4681772088477804 0.09510543263094937 0  -0.6531906232170687 -0.06171975714986294 0  0.6612537237706846 0.04535348453420714 0  0.6345278205785211 0.1413960550056769 0  -0.6799165265390616 0.03432281335059308 0  0.2260190508484043 -0.6448978305283196 0  0.4310859507295732 0.5504423117723948 0  -0.4541189162096942 0.5110743408881729 0  -0.5239312706109315 0.4399077442776883 0  -0.5458156360021287 -0.4457588689026649 0  -0.4496591618223829 -0.4707412880451375 0  0.5543501117845178 0.4295237668922745 0  0.3923696622464402 -0.5986072082673006 0  0.1294807921938694 -0.6200218618266979 0  -0.3799231786899924 -0.3995959535426268 0  -0.3204893995410594 0.03086148769718712 0  0.5750808215247509 -0.2890648491214648 0  0.4621820163455043 -0.5274406120320946 0  -0.3368499472862063 -0.232390250243194 0  0.188927791846685 -0.1895609528188325 0  0.3345476929550765 0.5753182859113447 0  -0.1912300463563641 0.5324889892380295 0  -0.2179559496650557 0.6285315599584633 0  -0.1214176919454829 0.6036555858383672 0  -0.1481435952457844 0.6996981565728593 0  -0.05160533746994912 0.6748221824573221 0  0.581076014925286 0.3334811961817142 0  0.6018067247361701 -0.3851074194357652 0  0.4869869017200988 -0.6228910692174049 0  0.1572340394148161 -0.7187357914562776 0  0.7302509579962368 0.1162932563386977 0  0.7034810132252184 0.2123235711332083 0  -0.3143635832681669 0.653279395590162 0  0.6710557319075262 -0.3140975865440377 0  -0.5194676125583334 -0.541906626672413 0  -0.4229920318077112 -0.5668006585662466 0  -0.6665840080286811 -0.3244548240554672 0  -0.6957825468412788 -0.2288428123419464 0  0.7535309802004999 0.02387228508192352 0  0.6483464994801122 0.4039107900221328 0  0.05983966168358921 -0.6916336864099627 0  0.1027548840652149 -0.5239793035500566 0  -0.2670375931113356 -0.1612236540510189 0  0.51126366033821 0.2623145996200579 0  0.2483747908044156 0.2408999514355696 0  -0.164504143066976
[...]
<PointData  Scalars="f_30"> 
<DataArray  type="Float64"  Name="f_30"  format="ascii">9.9694031897455807e-02  1.0046316882188493e-01  1.0107551397296163e-01  1.0169314551662527e-01  1.0230478359417182e-01  1.0294576064712518e-01  1.0355498541022583e-01  1.0395463159006320e-01  1.0431101874347563e-01  1.0462154272690292e-01  1.0471949907859468e-01  1.0471871790053021e-01  1.0462826955803192e-01  1.0447267461526628e-01  1.0431511943925051e-01  1.0420228067875381e-01  1.0410423034588367e-01  1.0402398556309210e-01  1.0396344724008426e-01  1.0386624892171030e-01  1.0371066246304964e-01  1.0342340831586691e-01  1.0296936696614854e-01  1.0243759141999564e-01  1.0185668281893076e-01  1.0124879426405133e-01  1.0084402292465729e-01  1.0045201452002839e-01  1.0010312105258706e-01  9.9948344877694578e-02  9.9893208483980755e-02  9.9698564462207762e-02  9.9438613817625338e-02  9.9268397110147344e-02  9.8965754184850860e-02  9.8581982227361226e-02  9.8079044778863186e-02  9.7548169923397945e-02  9.7191907918601300e-02  9.6847588041683169e-02  9.6597135500091941e-02  9.6416128091623865e-02  9.6281207334278321e-02  9.6317672046911426e-02  9.6315143193803424e-02  9.6229903711671130e-02  9.6037577252237494e-02  9.5726854352430307e-02  9.5480481526021385e-02  9.5135749048558566e-02  9.4789425504831493e-02  9.4458942258750733e-02  9.4201567399239017e-02  9.4092101728540975e-02  9.4128440553715179e-02  9.4444171679031380e-02  9.4915115834761171e-02  9.5512531667563336e-02  9.6219252326159188e-02  9.6937515599433602e-02  9.7661895467378357e-02  9.8427705630500850e-02  9.9054248629395866e-02  9.2924158840817422e-02  1.0193464898566756e-01  9.6706423532100141e-02  1.0120425987288144e-01  9.4917858419131154e-02  9.8789407265592058e-02  1.0313983399215373e-01  9.6151432043795518e-02  9.4036508904365310e-02  9.5250870330446283e-02  9.8269676815385107e-02  9.8667773754883836e-02  1.0048234079318517e-01  1.0284263821403608e-01  1.0305549607136813e-01  9.3746127092735929e-02  9.4572112421815013e-02  9.7392513753982862e-02  9.3250085032129837e-02  9.4837653848746303e-02  9.5363537929824271e-02  9.8334635526168890e-02  9.5764111261326626e-02  9.7368876253317846e-02  9.9356832866008091e-02  1.0256496118003995e-01  1.0000745120400022e-01  1.0283677962381502e-01  1.0121477124455591e-01  1.0203058561735416e-01  1.0316392114533693e-01  9.5002414568619589e-02  9.0989689350898448e-02  9.0980177567330844e-02  8.4806576692108102e-02  8.4838575222334289e-02  7.6972748919443418e-02  7.7450107837676058e-02  6.8402980162964672e-02  6.8749888822484270e-02  5.9653305584327861e-02  6.0241697820347141e-02  5.1601022656029519e-02  5.2085451249344009e-02  4.4645104041607452e-02  4.5294218507435466e-02  3.9278032606837945e-02  3.9866121346604950e-02  3.5649818264036709e-02  3.6286716205531491e-02  3.3918167628442276e-02  3.4586950035751761e-02  3.4170259811760820e-02  3.4761707941224629e-02  3.6340718704988971e-02  3.6155371547102445e-02  3.8191666432539940e-02  4.1067457240740915e-02  4.4125852893468050e-02  4.2559905808686613e-02  4.8197490353065905e-02  4.6464185217483370e-02  4.9573779609830115e-02  4.9256868415429880e-02  5.4595103341121422e-02  5.4147209404263062e-02  5.7101738007840463e-02  5.7894519223311555e-02  5.1373399804141309e-02  6.0910145615270715e-02  5.5778544930302813e-02  6.2947222403497205e-02  6.3653927503969560e-02  5.6048503314110758e-02  6.4420567749996271e-02  6.6466117038507549e-02  6.0157901083713765e-02  3.7791944245046873e-02  4.0642657589419671e-02  4.3407467064140379e-02  4.7437483527007065e-02  5.1156189397095243e-02  5.6151196204274972e-02  6.0528857384718748e-02  5.6880521064354511e-02  6.5898442541763622e-02  6.2147707709985844e-02  6.6161264899153222e-02  6.6566100931157599e-02  6.6125757637201937e-02  6.3119718425143329e-02  7.1127121611219035e-02  6.6505581225688948e-02  6.4135648284279409e-02  7.1361856889072553e-02  7.2623323201992634e-02  7.2395787560064540e-02  6.9928422430263232e-02  6.0382124677832320e-02  6.9235556554857733e-02  7.3205969969375367e-02  7.1517714045794684e-02  7.7554381625619756e-02  7.5493699788486968e-02  7.6841377497543550e-02  6.0705049559933055e-02  7.0352894938056298e-02  5.5440466633486403e-02  6.3813656014595183e-02  7.3468855782227074e-02  7.6407302515370923e-02  8.2228164043066029e-02  7.7182876977574380e-02  7.8408792850972145e-02  7.9890422660434710e-02  7.3143976649797590e-02  5.6291344124198721e-02  6.5547327154406032e-02  7.2763882121567897e-02  7.5016765522158399e-02  6.9147036260262321e-02  5.2009004387657792e-02  4.0333691970057289e-02  6.9007206051409725e-02  7.9828740248667637e-02  6.2047553795047006e-02  7.9701454574469852e-02  8.1069028780545796e-02  8.0554221900872122e-02  8.2429745745304789e-02  7.8674033753254075e-02  8.8134718169343096e-02  8.4936944135405604e-02  8.4424321187426946e-02  8.2631727539371397e-02  7.7306301203102043e-02  8.7667242376983034e-02  8.1273003589106246e-02  7.4216759827761575e-02  6.7255036120393713e-02  4.7013464834913657e-02  7.6391572266780547e-02  8.0211463897729193e-02  5.3545186326840931e-02  4.1874740850978642e-02  8.4787445511457574e-02  7.3281820663191416e-02  8.4129936536718852e-02  7.9011125601736107e-02  8.9296879400554960e-02  8.5610139301148372e-02  8.3978087271173840e-02  8.2418113736324447e-02  8.6986470284714998e-02  8.3451602234998465e-02  8.8777133134475369e-02  8.9145759218486442e-02  8.9835843138080643e-02  8.5355350041544875e-02  8.6214326368433333e-02  8.2336273011648767e-02  8.6559165171009464e-02  8.6268370203105224e-02  8.9223565704212596e-02  9.2928872261100678e-02  8.0184458882845186e-02  6.4333810991426460e-02  4.5471839237478440e-02  7.3534689617845553e-02  5.0381754067118520e-02  6.2310128632161156e-02  5.5791467113803429e-02  8.8653414115105578e-02  9.2104589304927001e-02  9.1913153164854919e-02  8.5273931316074955e-02  9.3698191905062289e-02  9.1935173292512024e-02  9.2793992352463855e-02  9.4216917512224496e-02  9.2164749640317567e-02  8.3084599081615959e-02  9.0963717821511872e-02  9.1065388404125952e-02  8.6194851403293790e-02  8.6536846632770351e-02  9.4011465598212968e-02  9.0145586755781160e-02  8.6771429279677348e-02  8.8515210988988818e-02  9.3424952841839742e-02  9.7524206456443829e-02  9.6039830696525968e-02  9.2815781349812596e-02  9.7985496296069771e-02  9.0465299273307834e-02  9.0172403538557100e-02  8.7390585047579503e-02  9.5422883430902009e-02  9.3080984187762436e-02  9.0455759700447294e-02  8.8255811713722793e-02  8.6108384393612653e-02  8.5409913053534223e-02  6.9808714919445777e-02  7.7923923398741365e-02  5.3345819496214884e-02  6.2832028467020171e-02  6.1064547121862947e-02  4.8304781203709152e-02  4.6359848792158327e-02  8.7880754106773110e-02  5.4734567354060709e-02  5.0325984891853082e-02  4.6985970515140682e-02  4.2884091410034346e-02  4.8178970119521491e-02  8.3580004461346474e-02  9.0104458606631424e-02  9.0638246824403801e-02  9.2085789145428379e-02  4.3545199200781717e-02  4.0239187992730699e-02  3.7921443137903271e-02  8.0508165671380125e-02  8.0651956607039124e-02  8.8737965769584273e-02  9.2806194791410779e-02  9.3886320126719477e-02  4.7209065363176830e-02  6.6160353879592987e-02  4.5024665023279078e-02  3.9446343707823149e-02  7.2200898452330381e-02  3.7539703628636248e-02  8.2898627066776309e-02  9.1792540640539474e-02  8.5809915608081141e-02  6.3065651713752016e-02  7.5915520879653864e-02  4.0534237707279763e-02  7.8309653097130158e-02  4.8452559067668204e-02  6.7813883542097497e-02  5.8603194189475703e-02  8.6903368876928122e-02  7.0723208274860783e-02  8.6823144224345908e-02  7.8060291013924726e-02  7.4224038817671562e-02  5.2758757105635420e-02  9.3370617914006818e-02  3.7066078139925872e-02  9.2139746971211509e-02  5.3778414333025729e-02  3.5818250199185858e-02  5.2326040488475889e-02  7.5122041665397959e-02  8.2685608308642175e-02  7.6431630716458601e-02  4.1164721737683464e-02  5.9346001114434388e-02  4.2539329170344420e-02  9.5686756755546637e-02  5.7377127215300985e-02  4.6004458670060408e-02  8.1570328898008304e-02  6.7967301691949505e-02  6.3066858101156545e-02  8.7455558428974012e-02  9.5326012873059293e-02  7.2921433241587577e-02  9.0468518529661188e-02  8.2088211920771578e-02  5.3635860225860282e-02  7.1606077804951804e-02  9.0952175861992779e-02  9.9051598584313588e-02  8.1474791928708018e-02  9.6751215685428424e-02  5.7247463807886936e-02  7.0773634240919481e-02  7.9206345081248603e-02  7.2853857228159485e-02  9.7561618870973116e-02  9.8465376311500097e-02  9.3074876098959453e-02  9.7704392227992945e-02  8.7951475302517124e-02  9.5254454248400275e-02  9.3049480058029987e-02  9.2239939626630019e-02  9.6545430888784395e-02  9.8209613305793544e-02  9.9193914836342420e-02  9.5362108011564806e-02  9.8988573519458181e-02  9.4078026324685093e-02  9.9551000108793128e-02  1.0280288185773506e-01  1.0094683842469639e-01  9.1590362367338127e-02  9.0985980411376316e-02  9.4095333777404755e-02  9.8479551099002319e-02  9.6844159524913043e-02  9.4760965231412822e-02  9.9327177823779422e-02  9.9379618241551768e-02  1.0204693428691369e-01  1.0102014124395670e-01  9.6843647822344420e-02  1.0279101070737200e-01  1.0261734516312263e-01  1.0078241940177704e-01  1.0338992505147544e-01  9.7708694240510485e-02  1.0315470822275362e-01  9.5474615756701506e-02  1.0316298122108025e-01  1.0285798618018449e-01  9.1176950361940248e-02  9.7323970483823255e-02  9.3011999149039098e-02  9.3433654674874078e-02  9.7504844717529043e-02  9.1582951968641343e-02  9.8493587261593712e-02  9.4074170953756100e-02  9.9308401066932284e-02  9.5873579422946206e-02  9.7221222376994793e-02  9.9761524765210247e-02  9.8786378487344187e-02  9.6673305454789638e-02  9.4931143214138258e-02  9.3809859841893578e-02  9.1916032811092077e-02  1.0038910223102103e-01  9.5346799711691368e-02  9.1207217903391744e-02  9.4703734762441927e-02  9.9620711958008548e-02  9.3596892026650141e-02  9.8191696233802347e-02  9.5731136677526946e-02  9.8763513180246759e-02  9.3624479850110645e-02  </DataArray> 
</PointData> 
</Piece>
</UnstructuredGrid>
</VTKFile>